 argument  1 = benzene_gamma2_ma-zora-def2-svp_pbe0_sodft.nw



============================== echo of input deck ==============================
echo

scratch_dir ./scratch

title "benzene_gamma2_ma-zora-def2-svp_pbe0_sodft"

Charge 1

basis "ao basis" spherical
  * library ma-zora-def2-svp except C
  C    S
     1238.40169380             5.727408300E-03
      186.29004992             4.213600060E-02
       42.25117635             1.866435633E-01
       11.67655793             4.678258158E-01
        3.59305065             4.421228295E-01
  C    S
        0.40245147             1.000000000E+00
  C    S
        0.13090183            -1.000000000E+00
  C    P
        9.46809706             5.701225280E-02
        2.01035451             3.130476217E-01
        0.54771005             7.605188875E-01
  C    P
        0.15268614             1.000000000E+00
  C    D
        0.80000000             1.000000000E+00
  #C    S
  #     0.04363394             1.000000000E+00
end

set tolguess 5e-8
set int:acc_std 1d-14

#memory total 1800 mb

dft
  direct
  xc pbe0
  decomp
  grid xfine nodisk     # Extra fine integration grid not stored on disk
  tolerances tight tol_rho 1e-13 accCoul 14     # Coulomb screening tolerances etc.
  convergence energy 5e-9 nolevelshifting       # SCF total energy convergence criterion
  iterations 200        # Maximum SCF iterations
  mult 2
end

relativistic
  zora on
  zora:cutoff 1d-30
end

geometry noautosym noautoz
C -1.40024273 0.02232486 0.00000000
C -0.71074846 -1.25212625 0.00000000
C 0.67044064 -1.27415126 0.00000000
C 1.40024254 -0.02232486 0.00000000
C 0.71074856 1.25212608 0.00000000
C -0.67044053 1.27415143 0.00000000
H -1.29869210 -2.17946235 0.00000000
H 1.22851910 -2.21976360 0.00000000
H 2.50436689 -0.03994437 0.00000000
H 1.29869187 2.17946273 0.00000000
H -1.22851937 2.21976321 0.00000000
H -2.50436664 0.03994438 0.00000000
end

task sodft
================================================================================


                                         
                                         


              Northwest Computational Chemistry Package (NWChem) 6.8
              ------------------------------------------------------


                    Environmental Molecular Sciences Laboratory
                       Pacific Northwest National Laboratory
                                Richland, WA 99352

                              Copyright (c) 1994-2017
                       Pacific Northwest National Laboratory
                            Battelle Memorial Institute

             NWChem is an open-source computational chemistry package
                        distributed under the terms of the
                      Educational Community License (ECL) 2.0
             A copy of the license is included with this distribution
                              in the LICENSE.TXT file

                                  ACKNOWLEDGMENT
                                  --------------

            This software and its documentation were developed at the
            EMSL at Pacific Northwest National Laboratory, a multiprogram
            national laboratory, operated for the U.S. Department of Energy
            by Battelle under Contract Number DE-AC05-76RL01830. Support
            for this work was provided by the Department of Energy Office
            of Biological and Environmental Research, Office of Basic
            Energy Sciences, and the Office of Advanced Scientific Computing.


           Job information
           ---------------

    hostname        = SPOCK
    program         = nwchem-6.8-mpi
    date            = Wed Sep  4 09:46:57 2019

    compiled        = Thu_Mar_22_16:13:41_2018
    source          = /mnt/Data/uday/work/codes/nwchem-6.8
    nwchem branch   = 6.8
    nwchem revision = v6.8-47-gdf6c956
    ga revision     = ga-5.6.3
    use scalapack   = F
    input           = benzene_gamma2_ma-zora-def2-svp_pbe0_sodft.nw
    prefix          = benzene_gamma2_ma-zora-def2-svp_pbe0_sodft.
    data base       = ./benzene_gamma2_ma-zora-def2-svp_pbe0_sodft.db
    status          = startup
    nproc           =       17
    time left       =     -1s



           Memory information
           ------------------

    heap     =  163839994 doubles =   1250.0 Mbytes
    stack    =  163839999 doubles =   1250.0 Mbytes
    global   =  327680000 doubles =   2500.0 Mbytes (distinct from heap & stack)
    total    =  655359993 doubles =   5000.0 Mbytes
    verify   = yes
    hardfail = no 


           Directory information
           ---------------------

  0 permanent = .
  0 scratch   = ./scratch




                                NWChem Input Module
                                -------------------


                    benzene_gamma2_ma-zora-def2-svp_pbe0_sodft
                    ------------------------------------------
  library name resolved from: .nwchemrc
  library file name is: </usr/local/share/nwchem/libraries/>
  


 Summary of "ao basis" -> "" (spherical)
 ------------------------------------------------------------------------------
       Tag                 Description            Shells   Functions and Types
 ---------------- ------------------------------  ------  ---------------------
 C                       user specified              6       14   3s2p1d
 *                      ma-zora-def2-svp           all atoms except C



 Scaling coordinates for geometry "geometry" by  1.889725989
 (inverse scale =  0.529177249)



                             Geometry "geometry" -> ""
                             -------------------------

 Output coordinates in angstroms (scale by  1.889725989 to convert to a.u.)

  No.       Tag          Charge          X              Y              Z
 ---- ---------------- ---------- -------------- -------------- --------------
    1 C                    6.0000    -1.40024273     0.02232486     0.00000000
    2 C                    6.0000    -0.71074846    -1.25212625     0.00000000
    3 C                    6.0000     0.67044064    -1.27415126     0.00000000
    4 C                    6.0000     1.40024254    -0.02232486     0.00000000
    5 C                    6.0000     0.71074856     1.25212608     0.00000000
    6 C                    6.0000    -0.67044053     1.27415143     0.00000000
    7 H                    1.0000    -1.29869210    -2.17946235     0.00000000
    8 H                    1.0000     1.22851910    -2.21976360     0.00000000
    9 H                    1.0000     2.50436689    -0.03994437     0.00000000
   10 H                    1.0000     1.29869187     2.17946273     0.00000000
   11 H                    1.0000    -1.22851937     2.21976321     0.00000000
   12 H                    1.0000    -2.50436664     0.03994438     0.00000000

      Atomic Mass 
      ----------- 

      C                 12.000000
      H                  1.007825


 Effective nuclear repulsion energy (a.u.)     199.2650613035

            Nuclear Dipole moment (a.u.) 
            ----------------------------
        X                 Y               Z
 ---------------- ---------------- ----------------
     0.0000000000     0.0000000000     0.0000000000


            XYZ format geometry
            -------------------
    12
 geometry
 C                    -1.40024273     0.02232486     0.00000000
 C                    -0.71074846    -1.25212625     0.00000000
 C                     0.67044064    -1.27415126     0.00000000
 C                     1.40024254    -0.02232486     0.00000000
 C                     0.71074856     1.25212608     0.00000000
 C                    -0.67044053     1.27415143     0.00000000
 H                    -1.29869210    -2.17946235     0.00000000
 H                     1.22851910    -2.21976360     0.00000000
 H                     2.50436689    -0.03994437     0.00000000
 H                     1.29869187     2.17946273     0.00000000
 H                    -1.22851937     2.21976321     0.00000000
 H                    -2.50436664     0.03994438     0.00000000

 ==============================================================================
                                internuclear distances
 ------------------------------------------------------------------------------
       center one      |      center two      | atomic units |  angstroms
 ------------------------------------------------------------------------------
    2 C                |   1 C                |     2.73823  |     1.44901
    3 C                |   2 C                |     2.61040  |     1.38136
    4 C                |   3 C                |     2.73826  |     1.44903
    5 C                |   4 C                |     2.73823  |     1.44901
    6 C                |   1 C                |     2.73827  |     1.44903
    6 C                |   5 C                |     2.61040  |     1.38136
    7 H                |   2 C                |     2.07494  |     1.09801
    8 H                |   3 C                |     2.07495  |     1.09801
    9 H                |   4 C                |     2.08676  |     1.10426
   10 H                |   5 C                |     2.07494  |     1.09801
   11 H                |   6 C                |     2.07494  |     1.09801
   12 H                |   1 C                |     2.08676  |     1.10426
 ------------------------------------------------------------------------------
                         number of included internuclear distances:         12
 ==============================================================================



 ==============================================================================
                                 internuclear angles
 ------------------------------------------------------------------------------
        center 1       |       center 2       |       center 3       |  degrees
 ------------------------------------------------------------------------------
    2 C                |   1 C                |   6 C                |   121.34
    2 C                |   1 C                |  12 H                |   119.33
    6 C                |   1 C                |  12 H                |   119.33
    1 C                |   2 C                |   3 C                |   119.33
    1 C                |   2 C                |   7 H                |   119.21
    3 C                |   2 C                |   7 H                |   121.46
    2 C                |   3 C                |   4 C                |   119.33
    2 C                |   3 C                |   8 H                |   121.46
    4 C                |   3 C                |   8 H                |   119.21
    3 C                |   4 C                |   5 C                |   121.34
    3 C                |   4 C                |   9 H                |   119.33
    5 C                |   4 C                |   9 H                |   119.33
    4 C                |   5 C                |   6 C                |   119.33
    4 C                |   5 C                |  10 H                |   119.21
    6 C                |   5 C                |  10 H                |   121.46
    1 C                |   6 C                |   5 C                |   119.33
    1 C                |   6 C                |  11 H                |   119.21
    5 C                |   6 C                |  11 H                |   121.46
 ------------------------------------------------------------------------------
                            number of included internuclear angles:         18
 ==============================================================================




                                 NWChem DFT Module
                                 -----------------


                    benzene_gamma2_ma-zora-def2-svp_pbe0_sodft


                      Basis "ao basis" -> "ao basis" (spherical)
                      -----
  C (Carbon)
  ----------
            Exponent  Coefficients 
       -------------- ---------------------------------------------------------
  1 S  1.23840169E+03  0.005727
  1 S  1.86290050E+02  0.042136
  1 S  4.22511764E+01  0.186644
  1 S  1.16765579E+01  0.467826
  1 S  3.59305065E+00  0.442123

  2 S  4.02451470E-01  1.000000

  3 S  1.30901830E-01 -1.000000

  4 P  9.46809706E+00  0.057012
  4 P  2.01035451E+00  0.313048
  4 P  5.47710050E-01  0.760519

  5 P  1.52686140E-01  1.000000

  6 D  8.00000000E-01  1.000000

  H (Hydrogen)
  ------------
            Exponent  Coefficients 
       -------------- ---------------------------------------------------------
  1 S  1.30107010E+01  0.039111
  1 S  1.96225720E+00  0.285581
  1 S  4.44537960E-01  0.769000

  2 S  1.21949620E-01  1.000000

  3 P  8.00000000E-01  1.000000



 Summary of "ao basis" -> "ao basis" (spherical)
 ------------------------------------------------------------------------------
       Tag                 Description            Shells   Functions and Types
 ---------------- ------------------------------  ------  ---------------------
 C                       user specified              6       14   3s2p1d
 H                      ma-zora-def2-svp             3        5   2s1p




 Summary of "ao basis" -> "ao basis" (spherical)
 ------------------------------------------------------------------------------
       Tag                 Description            Shells   Functions and Types
 ---------------- ------------------------------  ------  ---------------------
 C                       user specified              6       14   3s2p1d
 H                      ma-zora-def2-svp             3        5   2s1p



int_init: setting std/high accuracies to  1.0D-14  1.0D-28
  Caching 1-el integrals 

            General Information
            -------------------
          SCF calculation type: DFT
          Wavefunction type:  spin polarized.
          No. of atoms     :    12
          No. of electrons :    41
           Alpha electrons :    21
            Beta electrons :    20
          Charge           :     1
          Spin multiplicity:     2
          Use of symmetry is: off; symmetry adaption is: off
          Maximum number of iterations: 200
          This is a Direct SCF calculation.
          AO basis - number of functions:   114
                     number of shells:    54
          Convergence on energy requested:  5.00D-09
          Convergence on density requested:  1.00D-05
          Convergence on gradient requested:  5.00D-04

              XC Information
              --------------
                         PBE0 Method XC Functional
                     Hartree-Fock (Exact) Exchange  0.250          
          PerdewBurkeErnzerhof Exchange Functional  0.750          
            Perdew 1991 LDA Correlation Functional  1.000 local    
           PerdewBurkeErnz. Correlation Functional  1.000 non-local

             Grid Information
             ----------------
          Grid used for XC integration:  xfine     
          Radial quadrature: Mura-Knowles        
          Angular quadrature: Lebedev. 
          Tag              B.-S. Rad. Rad. Pts. Rad. Cut. Ang. Pts.
          ---              ---------- --------- --------- ---------
          C                   0.70      100          11.0      1454
          H                   0.35      100          13.0      1202
          Grid pruning is: on 
          Number of quadrature shells:  1200
          Spatial weights used:  Erf1

          Convergence Information
          -----------------------
          Convergence aids based upon iterative change in 
          total energy or number of iterations. 
          Levelshifting, if invoked, occurs when the 
          HOMO/LUMO gap drops below (HL_TOL):  1.00D-02
          DIIS, if invoked, will attempt to extrapolate 
          using up to (NFOCK): 10 stored Fock matrices.

                    Damping( 0%)  Levelshifting(0.0)       DIIS
                  --------------- ------------------- ---------------
          dE  on:    start             N/A                start   
          dE off:    2 iters           N/A              200 iters 


      Screening Tolerance Information
      -------------------------------
          Density screening/tol_rho:  1.00D-13
          AO Gaussian exp screening on grid/accAOfunc:  19
          CD Gaussian exp screening on grid/accCDfunc:  20
          XC Gaussian exp screening on grid/accXCfunc:  20
          Schwarz screening/accCoul:  1.00D-14

 Performing spin-orbit DFT (SO-DFT) calculations
 -----------------------------------------------

          Performing ZORA calculations
          ----------------------------


      Superposition of Atomic Density Guess
      -------------------------------------

 Sum of atomic energies:        -228.72275390

 Read atomic ZORA corrections from ./benzene_gamma2_ma-zora-def2-svp_pbe0_sodft.zora_so

 dft_zora_read_so: failed to open ./benzene_gamma2_ma-zora-def2-svp_pbe0_sodft.zora_so
       Generating atomic ZORA corrections
       ----------------------------------


 Grid_pts file          = ./scratch/benzene_gamma2_ma-zora-def2-svp_pbe0_sodft.gridpts.00
 Record size in doubles =  12289        No. of grid_pts per rec  =   3070
 Max. records in memory =     38        Max. recs in file   =  59602982

 Grid integrated density:      41.999999883755
 Requested integration accuracy:   0.10E-07

 Wrote atomic ZORA corrections to ./benzene_gamma2_ma-zora-def2-svp_pbe0_sodft.zora_so


      Superposition of Atomic Density Guess
      -------------------------------------

 Sum of atomic energies:        -228.72275390

 Renormalizing density from      42.00 to     41

      Non-variational initial energy
      ------------------------------

 Total energy =    -228.642283
 1-e energy   =    -683.559484
 2-e energy   =     255.652140
 HOMO         =      -0.570998
 LUMO         =      -0.310362

   Time prior to 1st pass:      6.5

           Memory utilization after 1st SCF pass: 
           Heap Space remaining (MW):       97.95            97951138
          Stack Space remaining (MW):      163.73           163732532

   convergence    iter        energy       DeltaE   RMS-Dens  Diis-err    time
 ---------------- ----- ----------------- --------- --------- ---------  ------
 d= 0,ls=0.0,diis     1   -231.5425223383 -4.31D+02  3.63D-03  2.68D-01     8.3
                                                     3.68D-03  2.68D-01
 d= 0,ls=0.0,diis     2   -231.5770994475 -3.46D-02  1.89D-03  1.13D-01    10.6
                                                     1.86D-03  1.13D-01
 d= 0,ls=0.0,diis     3   -231.6031005469 -2.60D-02  5.98D-04  1.39D-02    13.0
                                                     4.48D-04  1.39D-02
 d= 0,ls=0.0,diis     4   -231.6065822759 -3.48D-03  1.30D-04  1.06D-03    15.3
                                                     1.63D-04  1.06D-03
 d= 0,ls=0.0,diis     5   -231.6068646188 -2.82D-04  5.60D-05  2.61D-05    17.6
                                                     4.52D-05  2.61D-05
 d= 0,ls=0.0,diis     6   -231.6068869465 -2.23D-05  1.83D-05  3.23D-06    20.0
                                                     2.21D-05  3.23D-06
 d= 0,ls=0.0,diis     7   -231.6068896972 -2.75D-06  4.48D-06  1.69D-07    22.3
                                                     4.99D-06  1.69D-07
 d= 0,ls=0.0,diis     8   -231.6068898221 -1.25D-07  5.77D-07  3.64D-09    24.7
                                                     6.14D-07  3.64D-09
 d= 0,ls=0.0,diis     9   -231.6068898247 -2.59D-09  2.05D-07  2.56D-10    27.0
                                                     1.83D-07  2.56D-10
  zoraso: enough mem for repl


      Total SO-DFT energy =     -231.606889824785
      One electron energy =     -695.965188043454
           Coulomb energy =      299.234903823736
          Exchange energy =      -32.813092867215
       Correlation energy =       -1.328574041313
 Nuclear repulsion energy =      199.265061303461

       Scaling correction =        0.054208610075

 Numeric. integr. density =       40.999999933282

     Total iterative time =     22.8s



                       DFT Final Molecular Orbital Analysis
                       ------------------------------------

 Vector    1  Occ=1.000000D+00  E=-1.050667D+01
              MO Center= -1.9D-01,  3.0D-03, -4.1D-15, r^2= 2.0D+00
  Bfn.         Coefficient        Function           Bfn.         Coefficient        Function  
  ----     -------------------  ------------         ----     -------------------  ------------
     1    -0.742893  -0.011819   1 C  s                43     0.650256   0.010345   4 C  s         
     2    -0.039188  -0.000623   1 C  s                44     0.034495   0.000549   4 C  s         
     3     0.026516   0.000422   1 C  s         

 Vector    2  Occ=1.000000D+00  E=-1.050662D+01
              MO Center=  1.9D-01, -3.0D-03, -2.5D-15, r^2= 2.0D+00
  Bfn.         Coefficient        Function           Bfn.         Coefficient        Function  
  ----     -------------------  ------------         ----     -------------------  ------------
    43     0.742999   0.011826   4 C  s                 1     0.650376   0.010351   1 C  s         
    44     0.037742   0.000601   4 C  s                 2     0.032843   0.000523   1 C  s         
    45    -0.031277  -0.000498   4 C  s                 3    -0.028013  -0.000446   1 C  s         

 Vector    3  Occ=1.000000D+00  E=-1.049884D+01
              MO Center= -1.1D-16,  3.3D-18,  1.0D-20, r^2= 1.8D-15
  Bfn.         Coefficient        Function           Bfn.         Coefficient        Function  
  ----     -------------------  ------------         ----     -------------------  ------------
   115    -0.752036   0.000086   1 C  s               157     0.640281  -0.000073   4 C  s         
   116    -0.038750   0.000004   1 C  s               158     0.033216  -0.000004   4 C  s         
   117     0.025233  -0.000003   1 C  s         

 Vector    4  Occ=1.000000D+00  E=-1.049879D+01
              MO Center=  1.1D-16, -3.4D-18,  4.1D-20, r^2= 2.4D-15
  Bfn.         Coefficient        Function           Bfn.         Coefficient        Function  
  ----     -------------------  ------------         ----     -------------------  ------------
   157     0.752135   0.000101   4 C  s               115     0.640398   0.000086   1 C  s         
   158     0.037370   0.000005   4 C  s               116     0.031594   0.000004   1 C  s         
   159    -0.030243  -0.000004   4 C  s               117    -0.026559  -0.000004   1 C  s         

 Vector    5  Occ=1.000000D+00  E=-1.046922D+01
              MO Center= -2.1D-06,  1.1D-06, -1.0D-18, r^2= 5.5D-04
  Bfn.         Coefficient        Function           Bfn.         Coefficient        Function  
  ----     -------------------  ------------         ----     -------------------  ------------
    71     0.008156  -0.505177   6 C  s                29    -0.008038   0.497854   3 C  s         
    15    -0.007886   0.488331   2 C  s                57     0.007816  -0.483974   5 C  s         

 Vector    6  Occ=1.000000D+00  E=-1.046917D+01
              MO Center= -1.1D-02, -3.8D-03, -3.6D-15, r^2= 2.1D+00
  Bfn.         Coefficient        Function           Bfn.         Coefficient        Function  
  ----     -------------------  ------------         ----     -------------------  ------------
    71     0.503254   0.034143   6 C  s                29     0.497124   0.033728   3 C  s         
    15     0.490244   0.033257   2 C  s                57     0.480737   0.032611   5 C  s         

 Vector    7  Occ=1.000000D+00  E=-1.046907D+01
              MO Center= -2.4D-17,  2.0D-17, -2.8D-18, r^2= 1.2D-14
  Bfn.         Coefficient        Function           Bfn.         Coefficient        Function  
  ----     -------------------  ------------         ----     -------------------  ------------
   185     0.503546   0.000061   6 C  s               143    -0.496705  -0.000060   3 C  s         
   129    -0.489923  -0.000059   2 C  s               171     0.485528   0.000058   5 C  s         

 Vector    8  Occ=1.000000D+00  E=-1.046902D+01
              MO Center= -4.0D-17, -2.0D-17, -6.5D-18, r^2= 1.7D-14
  Bfn.         Coefficient        Function           Bfn.         Coefficient        Function  
  ----     -------------------  ------------         ----     -------------------  ------------
   185     0.502980  -0.000025   6 C  s               143     0.496973  -0.000025   3 C  s         
   129     0.492407  -0.000020   2 C  s               171     0.483633  -0.000019   5 C  s         

 Vector    9  Occ=1.000000D+00  E=-1.046887D+01
              MO Center=  8.5D-03, -2.6D-03,  1.3D-15, r^2= 1.6D+00
  Bfn.         Coefficient        Function           Bfn.         Coefficient        Function  
  ----     -------------------  ------------         ----     -------------------  ------------
    57     0.446570   0.234278   5 C  s                15    -0.440791  -0.231247   2 C  s         
    29     0.434143   0.227757   3 C  s                71    -0.426013  -0.223492   6 C  s         
    58     0.025321   0.013284   5 C  s                16    -0.025065  -0.013149   2 C  s         
    30     0.024720   0.012968   3 C  s                72    -0.024332  -0.012765   6 C  s         

 Vector   10  Occ=1.000000D+00  E=-1.046881D+01
              MO Center=  3.2D-06,  1.1D-06,  1.0D-18, r^2= 8.2D-04
  Bfn.         Coefficient        Function           Bfn.         Coefficient        Function  
  ----     -------------------  ------------         ----     -------------------  ------------
    57    -0.009961   0.504207   5 C  s                15    -0.009823   0.497247   2 C  s         
    29     0.009651  -0.488323   3 C  s                71     0.009558  -0.483601   6 C  s         
    59     0.000568  -0.028758   5 C  s                17     0.000566  -0.028646   2 C  s         
    31    -0.000559   0.028262   3 C  s                73    -0.000558   0.028259   6 C  s         
    58    -0.000554   0.028055   5 C  s                16    -0.000547   0.027705   2 C  s         

 Vector   11  Occ=1.000000D+00  E=-1.046871D+01
              MO Center=  3.9D-17, -1.3D-17,  1.2D-18, r^2= 1.2D-14
  Bfn.         Coefficient        Function           Bfn.         Coefficient        Function  
  ----     -------------------  ------------         ----     -------------------  ------------
   171     0.502726  -0.000039   5 C  s               129    -0.496428   0.000039   2 C  s         
   143     0.491433  -0.000038   3 C  s               185    -0.482924   0.000037   6 C  s         
   172     0.028497  -0.000002   5 C  s               130    -0.028216   0.000002   2 C  s         
   144     0.027951  -0.000002   3 C  s               186    -0.027547   0.000002   6 C  s         

 Vector   12  Occ=1.000000D+00  E=-1.046865D+01
              MO Center=  2.4D-17,  1.3D-17,  7.7D-19, r^2= 1.0D-14
  Bfn.         Coefficient        Function           Bfn.         Coefficient        Function  
  ----     -------------------  ------------         ----     -------------------  ------------
   171     0.502741   0.000091   5 C  s               129     0.496175   0.000090   2 C  s         
   143    -0.489812  -0.000084   3 C  s               185    -0.485136  -0.000083   6 C  s         
   173    -0.028669  -0.000005   5 C  s               131    -0.028569  -0.000005   2 C  s         
   145     0.028267   0.000005   3 C  s               187     0.028257   0.000005   6 C  s         
   172     0.027966   0.000005   5 C  s               130     0.027637   0.000005   2 C  s         

 Vector   13  Occ=1.000000D+00  E=-1.102770D+00
              MO Center= -3.1D-05,  4.8D-07, -1.9D-12, r^2= 2.1D+00
  Bfn.         Coefficient        Function           Bfn.         Coefficient        Function  
  ----     -------------------  ------------         ----     -------------------  ------------
     2     0.244609   0.003908   1 C  s                44     0.244598   0.003908   4 C  s         
    72     0.224232   0.003582   6 C  s                16     0.224227   0.003583   2 C  s         
    30     0.224226   0.003582   3 C  s                58     0.224222   0.003582   5 C  s         
     1    -0.123242  -0.001969   1 C  s                43    -0.123236  -0.001969   4 C  s         
    71    -0.116136  -0.001856   6 C  s                15    -0.116134  -0.001855   2 C  s         

 Vector   14  Occ=1.000000D+00  E=-1.091221D+00
              MO Center= -2.0D-14,  6.5D-16, -6.9D-18, r^2= 4.4D-09
  Bfn.         Coefficient        Function           Bfn.         Coefficient        Function  
  ----     -------------------  ------------         ----     -------------------  ------------
   130     0.231903   0.000681   2 C  s               186     0.231903   0.000681   6 C  s         
   172     0.231898   0.000681   5 C  s               144     0.231898   0.000681   3 C  s         
   116     0.227349   0.000667   1 C  s               158     0.227340   0.000667   4 C  s         
   129    -0.119905  -0.000352   2 C  s               185    -0.119904  -0.000352   6 C  s         
   171    -0.119902  -0.000352   5 C  s               143    -0.119902  -0.000352   3 C  s         

 Vector   15  Occ=1.000000D+00  E=-9.939147D-01
              MO Center=  1.6D-05, -2.6D-07, -1.8D-12, r^2= 2.8D+00
  Bfn.         Coefficient        Function           Bfn.         Coefficient        Function  
  ----     -------------------  ------------         ----     -------------------  ------------
    44     0.354522   0.005888   4 C  s                 2    -0.354520  -0.005888   1 C  s         
    43    -0.172347  -0.002862   4 C  s                 1     0.172345   0.002862   1 C  s         
    58     0.156487   0.003263   5 C  s                16    -0.156478  -0.003263   2 C  s         
    30     0.156493   0.001935   3 C  s                72    -0.156484  -0.001934   6 C  s         
    45     0.112867   0.001874   4 C  s                 3    -0.112866  -0.001874   1 C  s         

 Vector   16  Occ=1.000000D+00  E=-9.910815D-01
              MO Center= -3.3D-09,  1.0D-09, -5.3D-16, r^2= 7.2D-04
  Bfn.         Coefficient        Function           Bfn.         Coefficient        Function  
  ----     -------------------  ------------         ----     -------------------  ------------
    72     0.004290  -0.291661   6 C  s                30    -0.004290   0.291657   3 C  s         
    16    -0.005000   0.291634   2 C  s                58     0.005000  -0.291630   5 C  s         
    71    -0.002146   0.145954   6 C  s                29     0.002146  -0.145952   3 C  s         
    15     0.002502  -0.145942   2 C  s                57    -0.002502   0.145939   5 C  s         
     5     0.001873  -0.117624   1 C  py               47     0.001873  -0.117620   4 C  py        

 Vector   17  Occ=1.000000D+00  E=-9.897633D-01
              MO Center=  3.1D-14, -5.5D-16,  7.6D-18, r^2= 4.7D-09
  Bfn.         Coefficient        Function           Bfn.         Coefficient        Function  
  ----     -------------------  ------------         ----     -------------------  ------------
   130    -0.292388   0.000181   2 C  s               172     0.292384  -0.000181   5 C  s         
   186     0.292356  -0.000299   6 C  s               144    -0.292352   0.000299   3 C  s         
   129     0.146135  -0.000092   2 C  s               171    -0.146133   0.000092   5 C  s         
   185    -0.146118   0.000148   6 C  s               143     0.146116  -0.000148   3 C  s         
   119     0.112659  -0.000092   1 C  py              161     0.112655  -0.000092   4 C  py        

 Vector   18  Occ=1.000000D+00  E=-9.714148D-01
              MO Center= -1.3D-13,  4.8D-15, -1.4D-17, r^2= 1.1D-08
  Bfn.         Coefficient        Function           Bfn.         Coefficient        Function  
  ----     -------------------  ------------         ----     -------------------  ------------
   116    -0.345695   0.000110   1 C  s               158     0.345695  -0.000110   4 C  s         
   157    -0.167647   0.000053   4 C  s               115     0.167646  -0.000053   1 C  s         
   144     0.165578  -0.000154   3 C  s               186    -0.165570   0.000154   6 C  s         
   172     0.165515   0.000049   5 C  s               130    -0.165507  -0.000049   2 C  s         
   224    -0.094133   0.000030  12 H  s               209     0.094132  -0.000030   9 H  s         

 Vector   19  Occ=1.000000D+00  E=-8.490803D-01
              MO Center= -4.2D-07, -6.5D-10, -1.3D-12, r^2= 3.6D+00
  Bfn.         Coefficient        Function           Bfn.         Coefficient        Function  
  ----     -------------------  ------------         ----     -------------------  ------------
    44     0.287786   0.004537   4 C  s                 2     0.287783   0.004537   1 C  s         
    72    -0.149287  -0.001951   6 C  s                30    -0.149281  -0.001951   3 C  s         
    16    -0.149222  -0.002755   2 C  s                58    -0.149217  -0.002755   5 C  s         
    32     0.148641   0.002582   3 C  px               74    -0.148639  -0.002582   6 C  px        
    60     0.145411   0.002053   5 C  px               18    -0.145410  -0.002053   2 C  px        

 Vector   20  Occ=1.000000D+00  E=-8.387159D-01
              MO Center= -2.9D-13,  5.0D-15,  2.3D-17, r^2= 5.1D-08
  Bfn.         Coefficient        Function           Bfn.         Coefficient        Function  
  ----     -------------------  ------------         ----     -------------------  ------------
   158    -0.289387   0.001951   4 C  s               116    -0.289384   0.001951   1 C  s         
   146    -0.148762   0.001395   3 C  px              188     0.148760  -0.001395   6 C  px        
   174    -0.145223   0.000586   5 C  px              132     0.145221  -0.000586   2 C  px        
   224    -0.137927   0.000930  12 H  s               209    -0.137926   0.000930   9 H  s         
   186     0.137489  -0.000220   6 C  s               144     0.137483  -0.000220   3 C  s         

 Vector   21  Occ=1.000000D+00  E=-8.380227D-01
              MO Center= -1.1D-09,  3.2D-10, -2.9D-16, r^2= 9.1D-04
  Bfn.         Coefficient        Function           Bfn.         Coefficient        Function  
  ----     -------------------  ------------         ----     -------------------  ------------
    58     0.004030  -0.237011   5 C  s                16     0.004030  -0.237006   2 C  s         
    30    -0.003499   0.236990   3 C  s                72    -0.003499   0.236985   6 C  s         
     5    -0.003531   0.222288   1 C  py               47     0.003531  -0.222284   4 C  py        
    74     0.002186  -0.119526   6 C  px               32    -0.002186   0.119520   3 C  px        
    18    -0.001607   0.118999   2 C  px               60     0.001607  -0.118992   5 C  px        

 Vector   22  Occ=1.000000D+00  E=-8.321426D-01
              MO Center= -4.9D-13,  6.5D-15,  1.3D-17, r^2= 4.3D-08
  Bfn.         Coefficient        Function           Bfn.         Coefficient        Function  
  ----     -------------------  ------------         ----     -------------------  ------------
   172    -0.240655   0.000185   5 C  s               130    -0.240650   0.000185   2 C  s         
   144     0.240627   0.000645   3 C  s               186     0.240623   0.000645   6 C  s         
   119     0.216931   0.000206   1 C  py              161    -0.216927  -0.000206   4 C  py        
   188    -0.120301   0.000357   6 C  px              146     0.120295  -0.000357   3 C  px        
   132     0.119814   0.000577   2 C  px              174    -0.119808  -0.000577   5 C  px        

 Vector   23  Occ=1.000000D+00  E=-7.552838D-01
              MO Center= -3.4D-05,  5.4D-07, -8.0D-13, r^2= 4.2D+00
  Bfn.         Coefficient        Function           Bfn.         Coefficient        Function  
  ----     -------------------  ------------         ----     -------------------  ------------
     4     0.207429   0.003303   1 C  px               46    -0.207419  -0.003302   4 C  px        
    75    -0.177633  -0.002853   6 C  py               33     0.177627   0.002853   3 C  py        
    19     0.174874   0.002759   2 C  py               61    -0.174869  -0.002759   5 C  py        
    85    -0.130258  -0.002080   7 H  s               105    -0.130257  -0.002069  11 H  s         
   100    -0.130255  -0.002080  10 H  s                90    -0.130254  -0.002069   8 H  s         

 Vector   24  Occ=1.000000D+00  E=-7.525545D-01
              MO Center= -5.4D-12,  2.0D-14, -6.2D-17, r^2= 1.6D-07
  Bfn.         Coefficient        Function           Bfn.         Coefficient        Function  
  ----     -------------------  ------------         ----     -------------------  ------------
   118    -0.202610  -0.000279   1 C  px              160     0.202601   0.000279   4 C  px        
   189     0.176021   0.000213   6 C  py              147    -0.176015  -0.000213   3 C  py        
   133    -0.173065  -0.000268   2 C  py              175     0.173059   0.000268   5 C  py        
   224     0.131403   0.000180  12 H  s               209     0.131399   0.000180   9 H  s         
   199     0.130543   0.000177   7 H  s               219     0.130543   0.000181  11 H  s         

 Vector   25  Occ=1.000000D+00  E=-6.941523D-01
              MO Center= -1.1D-08, -5.2D-09, -1.3D-15, r^2= 4.3D-03
  Bfn.         Coefficient        Function           Bfn.         Coefficient        Function  
  ----     -------------------  ------------         ----     -------------------  ------------
     5     0.004485  -0.286032   1 C  py               47     0.004485  -0.286030   4 C  py        
    32    -0.005745   0.240189   3 C  px               74    -0.005745   0.240187   6 C  px        
    60     0.001785  -0.235700   5 C  px               18     0.001785  -0.235698   2 C  px        
    19    -0.004465   0.146348   2 C  py               61    -0.004465   0.146344   5 C  py        
    75    -0.000026   0.138827   6 C  py               33    -0.000026   0.138823   3 C  py        

 Vector   26  Occ=1.000000D+00  E=-6.920127D-01
              MO Center= -1.8D-05,  2.9D-07, -1.4D-12, r^2= 5.2D+00
  Bfn.         Coefficient        Function           Bfn.         Coefficient        Function  
  ----     -------------------  ------------         ----     -------------------  ------------
   110    -0.197959  -0.003161  12 H  s                95     0.197956   0.003161   9 H  s         
     4     0.191370   0.003175   1 C  px               46     0.191366   0.003175   4 C  px        
    58    -0.175863  -0.003015   5 C  s                16     0.175862   0.003016   2 C  s         
    30    -0.175865  -0.002601   3 C  s                72     0.175864   0.002601   6 C  s         
     3    -0.170017  -0.002715   1 C  s                45     0.170017   0.002715   4 C  s         

 Vector   27  Occ=1.000000D+00  E=-6.895123D-01
              MO Center= -1.2D-14,  1.2D-13,  6.5D-18, r^2= 1.3D-07
  Bfn.         Coefficient        Function           Bfn.         Coefficient        Function  
  ----     -------------------  ------------         ----     -------------------  ------------
   119    -0.278926  -0.036992   1 C  py              161    -0.278924  -0.036992   4 C  py        
   146     0.243949   0.030489   3 C  px              188     0.243948   0.030489   6 C  px        
   174    -0.239084  -0.033518   5 C  px              132    -0.239082  -0.033518   2 C  px        
   133     0.141621   0.016496   2 C  py              175     0.141617   0.016495   5 C  py        
   189     0.133320   0.019955   6 C  py              147     0.133316   0.019954   3 C  py        

 Vector   28  Occ=1.000000D+00  E=-6.872808D-01
              MO Center= -1.3D-12,  8.9D-15, -9.3D-17, r^2= 8.5D-08
  Bfn.         Coefficient        Function           Bfn.         Coefficient        Function  
  ----     -------------------  ------------         ----     -------------------  ------------
   224     0.201675   0.000915  12 H  s               209    -0.201672  -0.000915   9 H  s         
   118    -0.179793  -0.000703   1 C  px              160    -0.179788  -0.000703   4 C  px        
   172     0.171830   0.000746   5 C  s               130    -0.171828  -0.000745   2 C  s         
   144     0.171826   0.000813   3 C  s               186    -0.171825  -0.000813   6 C  s         
   158    -0.157346  -0.000714   4 C  s               116     0.157343   0.000714   1 C  s         

 Vector   29  Occ=1.000000D+00  E=-6.597753D-01
              MO Center= -4.1D-09, -3.4D-09,  2.5D-16, r^2= 1.3D-03
  Bfn.         Coefficient        Function           Bfn.         Coefficient        Function  
  ----     -------------------  ------------         ----     -------------------  ------------
    75    -0.004695   0.214425   6 C  py               33    -0.004695   0.214418   3 C  py        
    19    -0.002130   0.208937   2 C  py               61    -0.002130   0.208930   5 C  py        
    18    -0.002686   0.177670   2 C  px               60    -0.002686   0.177670   5 C  px        
    85     0.001961  -0.176592   7 H  s               100    -0.001961   0.176588  10 H  s         
   105    -0.003727   0.176529  11 H  s                90     0.003727  -0.176524   8 H  s         

 Vector   30  Occ=1.000000D+00  E=-6.597444D-01
              MO Center= -2.7D-13,  4.4D-14,  1.3D-17, r^2= 6.7D-08
  Bfn.         Coefficient        Function           Bfn.         Coefficient        Function  
  ----     -------------------  ------------         ----     -------------------  ------------
   189     0.219070  -0.005659   6 C  py              147     0.219063  -0.005659   3 C  py        
   133     0.213829  -0.004189   2 C  py              175     0.213822  -0.004189   5 C  py        
   199    -0.176750   0.003552   7 H  s               214     0.176746  -0.003552  10 H  s         
   219     0.176689  -0.004488  11 H  s               204    -0.176685   0.004487   8 H  s         
   132     0.169986  -0.003815   2 C  px              174     0.169986  -0.003815   5 C  px        

 Vector   31  Occ=1.000000D+00  E=-6.543209D-01
              MO Center=  2.5D-05, -4.4D-07,  1.9D-14, r^2= 4.1D+00
  Bfn.         Coefficient        Function           Bfn.         Coefficient        Function  
  ----     -------------------  ------------         ----     -------------------  ------------
    46    -0.292673  -0.004681   4 C  px                4    -0.292673  -0.004681   1 C  px        
    33     0.182005   0.004291   3 C  py               75     0.182000   0.004291   6 C  py        
    61    -0.180982  -0.001545   5 C  py               19    -0.180977  -0.001545   2 C  py        
   110     0.169264   0.002704  12 H  s                95    -0.169264  -0.002704   9 H  s         
    49    -0.140444  -0.002242   4 C  px                7    -0.140443  -0.002242   1 C  px        

 Vector   32  Occ=1.000000D+00  E=-6.489061D-01
              MO Center= -5.6D-11,  9.9D-13, -2.9D-16, r^2= 6.7D-06
  Bfn.         Coefficient        Function           Bfn.         Coefficient        Function  
  ----     -------------------  ------------         ----     -------------------  ------------
   118     0.294157  -0.000699   1 C  px              160     0.294157  -0.000699   4 C  px        
   147    -0.183663   0.001158   3 C  py              189    -0.183658   0.001158   6 C  py        
   175     0.182733   0.000272   5 C  py              133     0.182728   0.000272   2 C  py        
   224    -0.177697   0.000421  12 H  s               209     0.177696  -0.000421   9 H  s         
   121     0.130067  -0.000308   1 C  px              163     0.130067  -0.000308   4 C  px        

 Vector   33  Occ=1.000000D+00  E=-6.189722D-01
              MO Center= -3.1D-05,  5.0D-07,  5.1D-12, r^2= 2.6D+00
  Bfn.         Coefficient        Function           Bfn.         Coefficient        Function  
  ----     -------------------  ------------         ----     -------------------  ------------
     6    -0.255154  -0.072958   1 C  pz               48    -0.255142  -0.072955   4 C  pz        
    76    -0.210691  -0.060245   6 C  pz               34    -0.210686  -0.060243   3 C  pz        
    20    -0.210683  -0.060242   2 C  pz               62    -0.210677  -0.060241   5 C  pz        
     9    -0.140489  -0.040171   1 C  pz               51    -0.140482  -0.040169   4 C  pz        
    79    -0.103038  -0.029463   6 C  pz               37    -0.103035  -0.029462   3 C  pz        

 Vector   34  Occ=1.000000D+00  E=-5.873342D-01
              MO Center=  4.1D-05, -6.7D-07, -4.4D-13, r^2= 4.1D+00
  Bfn.         Coefficient        Function           Bfn.         Coefficient        Function  
  ----     -------------------  ------------         ----     -------------------  ------------
    32     0.259050   0.004186   3 C  px               74    -0.259050  -0.004186   6 C  px        
    60     0.258907   0.004134   5 C  px               18    -0.258907  -0.004134   2 C  px        
    46    -0.235065  -0.003770   4 C  px                4     0.235055   0.003770   1 C  px        
    95    -0.204617  -0.003314   9 H  s               110    -0.204610  -0.003314  12 H  s         
    49    -0.114201  -0.001835   4 C  px                7     0.114196   0.001835   1 C  px        

 Vector   35  Occ=1.000000D+00  E=-5.853807D-01
              MO Center= -9.7D-13, -1.3D-14, -1.6D-16, r^2= 2.2D-07
  Bfn.         Coefficient        Function           Bfn.         Coefficient        Function  
  ----     -------------------  ------------         ----     -------------------  ------------
   146    -0.257522   0.000390   3 C  px              188     0.257521  -0.000390   6 C  px        
   174    -0.257278   0.000386   5 C  px              132     0.257278  -0.000386   2 C  px        
   160     0.233938  -0.000348   4 C  px              118    -0.233928   0.000348   1 C  px        
   209     0.211184  -0.000344   9 H  s               224     0.211175  -0.000344  12 H  s         
   163     0.109698  -0.000166   4 C  px              121    -0.109694   0.000166   1 C  px        

 Vector   36  Occ=1.000000D+00  E=-5.823283D-01
              MO Center=  9.7D-11, -6.8D-12, -1.7D-17, r^2= 1.7D-06
  Bfn.         Coefficient        Function           Bfn.         Coefficient        Function  
  ----     -------------------  ------------         ----     -------------------  ------------
   134    -0.243092  -0.000000   2 C  pz              176    -0.243089  -0.000000   5 C  pz        
   190    -0.243084   0.000000   6 C  pz              148    -0.243081   0.000000   3 C  pz        
   120    -0.199401  -0.000000   1 C  pz              162    -0.199397  -0.000000   4 C  pz        
   137    -0.134412  -0.000000   2 C  pz              179    -0.134411  -0.000000   5 C  pz        
   193    -0.134406   0.000000   6 C  pz              151    -0.134404   0.000000   3 C  pz        

 Vector   37  Occ=1.000000D+00  E=-5.772570D-01
              MO Center=  1.1D-08, -2.8D-09, -1.4D-16, r^2= 1.4D-03
  Bfn.         Coefficient        Function           Bfn.         Coefficient        Function  
  ----     -------------------  ------------         ----     -------------------  ------------
    47    -0.004263   0.264352   4 C  py                5     0.004263  -0.264345   1 C  py        
    61     0.003897  -0.236960   5 C  py               19    -0.003897   0.236952   2 C  py        
    33     0.003760  -0.236954   3 C  py               75    -0.003760   0.236946   6 C  py        
   100     0.001997  -0.185909  10 H  s                85     0.001997  -0.185905   7 H  s         
    90    -0.003953   0.185849   8 H  s               105    -0.003953   0.185844  11 H  s         

 Vector   38  Occ=1.000000D+00  E=-5.739302D-01
              MO Center=  1.6D-14, -1.9D-14, -5.5D-19, r^2= 2.1D-09
  Bfn.         Coefficient        Function           Bfn.         Coefficient        Function  
  ----     -------------------  ------------         ----     -------------------  ------------
   161    -0.264066   0.011142   4 C  py              119     0.264060  -0.011142   1 C  py        
   175     0.239300  -0.010192   5 C  py              133    -0.239292   0.010192   2 C  py        
   147     0.239201  -0.010010   3 C  py              189    -0.239193   0.010010   6 C  py        
   214     0.185172  -0.006934  10 H  s               199     0.185167  -0.006934   7 H  s         
   204    -0.185074   0.008649   8 H  s               219    -0.185070   0.008649  11 H  s         

 Vector   39  Occ=1.000000D+00  E=-5.172185D-01
              MO Center=  2.4D-05, -3.9D-07,  1.4D-12, r^2= 2.5D+00
  Bfn.         Coefficient        Function           Bfn.         Coefficient        Function  
  ----     -------------------  ------------         ----     -------------------  ------------
    48    -0.359251   0.152113   4 C  pz                6     0.359246  -0.152111   1 C  pz        
    51    -0.233058   0.098681   4 C  pz                9     0.233056  -0.098680   1 C  pz        
    34    -0.140904   0.059662   3 C  pz               76     0.140897  -0.059659   6 C  pz        
    62    -0.140871   0.059646   5 C  pz               20     0.140863  -0.059642   2 C  pz        
    37    -0.086212   0.036505   3 C  pz               79     0.086208  -0.036503   6 C  pz        

 Vector   40  Occ=1.000000D+00  E=-4.961731D-01
              MO Center= -6.4D-06,  1.2D-07,  4.3D-12, r^2= 3.0D+00
  Bfn.         Coefficient        Function           Bfn.         Coefficient        Function  
  ----     -------------------  ------------         ----     -------------------  ------------
    20     0.302100   0.056799   2 C  pz               62    -0.302096  -0.056798   5 C  pz        
    76    -0.302096  -0.056797   6 C  pz               34     0.302092   0.056796   3 C  pz        
    79    -0.194125  -0.036497   6 C  pz               23     0.194124   0.036498   2 C  pz        
    37     0.194122   0.036497   3 C  pz               65    -0.194121  -0.036498   5 C  pz        

 Vector   41  Occ=1.000000D+00  E=-4.934903D-01
              MO Center= -3.7D-13, -3.3D-15, -2.3D-17, r^2= 1.3D-07
  Bfn.         Coefficient        Function           Bfn.         Coefficient        Function  
  ----     -------------------  ------------         ----     -------------------  ------------
   134    -0.306718   0.002499   2 C  pz              176     0.306715  -0.002499   5 C  pz        
   190     0.306682  -0.002500   6 C  pz              148    -0.306679   0.002500   3 C  pz        
   137    -0.198228   0.001615   2 C  pz              179     0.198226  -0.001615   5 C  pz        
   193     0.198203  -0.001616   6 C  pz              151    -0.198200   0.001616   3 C  pz        

 Vector   42  Occ=0.000000D+00  E=-4.001084D-01
              MO Center= -3.0D-13,  2.9D-14,  1.8D-17, r^2= 3.9D-07
  Bfn.         Coefficient        Function           Bfn.         Coefficient        Function  
  ----     -------------------  ------------         ----     -------------------  ------------
   120     0.341412  -0.000000   1 C  pz              162    -0.341409   0.000000   4 C  pz        
   123     0.242211  -0.000000   1 C  pz              165    -0.242208   0.000000   4 C  pz        
   148    -0.176929   0.000001   3 C  pz              190     0.176924  -0.000001   6 C  pz        
   176    -0.176869  -0.000001   5 C  pz              134     0.176864   0.000001   2 C  pz        
   151    -0.132435   0.000000   3 C  pz              193     0.132431  -0.000000   6 C  pz        

 Vector   43  Occ=0.000000D+00  E=-2.686501D-01
              MO Center= -7.4D-06,  1.1D-07, -2.0D-12, r^2= 2.4D+00
  Bfn.         Coefficient        Function           Bfn.         Coefficient        Function  
  ----     -------------------  ------------         ----     -------------------  ------------
     9     0.358768   0.225362   1 C  pz               51     0.358765   0.225360   4 C  pz        
     6     0.325969   0.204759   1 C  pz               48     0.325966   0.204758   4 C  pz        
    79    -0.192210  -0.120735   6 C  pz               37    -0.192203  -0.120730   3 C  pz        
    23    -0.192131  -0.120692   2 C  pz               65    -0.192124  -0.120687   5 C  pz        
    76    -0.177521  -0.111509   6 C  pz               34    -0.177516  -0.111505   3 C  pz        

 Vector   44  Occ=0.000000D+00  E=-2.268299D-01
              MO Center=  5.8D-08, -9.4D-10,  2.8D-14, r^2= 3.2D-02
  Bfn.         Coefficient        Function           Bfn.         Coefficient        Function  
  ----     -------------------  ------------         ----     -------------------  ------------
    65    -0.040271   0.422357   5 C  pz               23    -0.040270   0.422355   2 C  pz        
    37     0.040261  -0.422295   3 C  pz               79     0.040261  -0.422293   6 C  pz        
    62    -0.031075   0.325907   5 C  pz               20    -0.031075   0.325905   2 C  pz        
    34     0.031067  -0.325857   3 C  pz               76     0.031067  -0.325855   6 C  pz        
    11     0.003408  -0.035740   1 C  d -1             53    -0.003408   0.035740   4 C  d -1      

 Vector   45  Occ=0.000000D+00  E=-2.194329D-01
              MO Center= -4.7D-12,  4.9D-14, -2.1D-17, r^2= 7.6D-07
  Bfn.         Coefficient        Function           Bfn.         Coefficient        Function  
  ----     -------------------  ------------         ----     -------------------  ------------
   123    -0.479520   0.000000   1 C  pz              165    -0.479515   0.000000   4 C  pz        
   120    -0.383866  -0.000000   1 C  pz              162    -0.383863  -0.000000   4 C  pz        
   193     0.217813   0.000020   6 C  pz              151     0.217803   0.000020   3 C  pz        
   137     0.217645  -0.000020   2 C  pz              179     0.217634  -0.000020   5 C  pz        
   190     0.181237   0.000016   6 C  pz              148     0.181229   0.000016   3 C  pz        

 Vector   46  Occ=0.000000D+00  E=-2.134261D-01
              MO Center= -1.3D-12, -1.6D-13, -1.2D-17, r^2= 7.5D-07
  Bfn.         Coefficient        Function           Bfn.         Coefficient        Function  
  ----     -------------------  ------------         ----     -------------------  ------------
   179    -0.415080  -0.093619   5 C  pz              137    -0.415077  -0.093619   2 C  pz        
   151     0.414990   0.093621   3 C  pz              193     0.414988   0.093620   6 C  pz        
   176    -0.319469  -0.072054   5 C  pz              134    -0.319467  -0.072053   2 C  pz        
   148     0.319395   0.072055   3 C  pz              190     0.319394   0.072055   6 C  pz        
   125     0.031512   0.007108   1 C  d -1            167    -0.031511  -0.007108   4 C  d -1      

 Vector   47  Occ=0.000000D+00  E=-1.103220D-01
              MO Center= -7.7D-05,  1.2D-06,  9.8D-13, r^2= 9.5D+00
  Bfn.         Coefficient        Function           Bfn.         Coefficient        Function  
  ----     -------------------  ------------         ----     -------------------  ------------
   111    -0.795346  -0.012871  12 H  s                96    -0.795304  -0.012870   9 H  s         
   106    -0.655331  -0.010584  11 H  s                91    -0.655312  -0.010584   8 H  s         
    86    -0.655299  -0.010626   7 H  s               101    -0.655280  -0.010625  10 H  s         
     3     0.569011   0.009208   1 C  s                45     0.568985   0.009208   4 C  s         
    73     0.405904   0.006517   6 C  s                31     0.405893   0.006517   3 C  s         

 Vector   48  Occ=0.000000D+00  E=-1.084242D-01
              MO Center= -1.2D-12,  5.8D-15, -3.0D-16, r^2= 6.0D-08
  Bfn.         Coefficient        Function           Bfn.         Coefficient        Function  
  ----     -------------------  ------------         ----     -------------------  ------------
   225    -0.767889  -0.001978  12 H  s               210    -0.767848  -0.001978   9 H  s         
   220    -0.674300  -0.001751  11 H  s               205    -0.674281  -0.001751   8 H  s         
   200    -0.674275  -0.001723   7 H  s               215    -0.674256  -0.001723  10 H  s         
   117     0.490514   0.001263   1 C  s               159     0.490491   0.001263   4 C  s         
   187     0.448969   0.001203   6 C  s               145     0.448958   0.001203   3 C  s         

 Vector   49  Occ=0.000000D+00  E=-9.021888D-02
              MO Center=  8.3D-08, -1.3D-09,  1.6D-14, r^2= 2.0D-02
  Bfn.         Coefficient        Function           Bfn.         Coefficient        Function  
  ----     -------------------  ------------         ----     -------------------  ------------
    65     0.038470  -0.529318   5 C  pz               23    -0.038470   0.529313   2 C  pz        
    37     0.038469  -0.529302   3 C  pz               79    -0.038469   0.529296   6 C  pz        
    51    -0.033633   0.462763   4 C  pz                9     0.033632  -0.462753   1 C  pz        
    62     0.022800  -0.313714   5 C  pz               20    -0.022800   0.313711   2 C  pz        
    34     0.022800  -0.313709   3 C  pz               76    -0.022800   0.313706   6 C  pz        

 Vector   50  Occ=0.000000D+00  E=-6.518011D-02
              MO Center= -1.7D-09,  4.0D-11, -3.9D-17, r^2= 1.5D-05
  Bfn.         Coefficient        Function           Bfn.         Coefficient        Function  
  ----     -------------------  ------------         ----     -------------------  ------------
   179    -0.533736  -0.000000   5 C  pz              151    -0.533732   0.000000   3 C  pz        
   137     0.533731   0.000000   2 C  pz              193     0.533726  -0.000000   6 C  pz        
   165     0.522932  -0.000000   4 C  pz              123    -0.522920   0.000000   1 C  pz        
   162     0.301688  -0.000000   4 C  pz              120    -0.301683   0.000000   1 C  pz        
   176    -0.301294   0.000000   5 C  pz              148    -0.301293  -0.000000   3 C  pz        

 Vector   51  Occ=0.000000D+00  E=-6.477300D-02
              MO Center=  4.6D-05, -6.9D-07, -2.3D-13, r^2= 1.0D+01
  Bfn.         Coefficient        Function           Bfn.         Coefficient        Function  
  ----     -------------------  ------------         ----     -------------------  ------------
    96    -1.233669  -0.019638   9 H  s               111     1.233667   0.019638  12 H  s         
     3    -0.800395  -0.012741   1 C  s                45     0.800384   0.012741   4 C  s         
    49     0.529003   0.008414   4 C  px                7     0.529000   0.008414   1 C  px        
    91    -0.519615  -0.010288   8 H  s               106     0.519574   0.010288  11 H  s         
   101    -0.519514  -0.006253  10 H  s                86     0.519473   0.006252   7 H  s         

 Vector   52  Occ=0.000000D+00  E=-6.230121D-02
              MO Center= -2.2D-12,  1.3D-13, -6.4D-15, r^2= 2.6D-07
  Bfn.         Coefficient        Function           Bfn.         Coefficient        Function  
  ----     -------------------  ------------         ----     -------------------  ------------
   210     1.218129   0.008303   9 H  s               225    -1.218129  -0.008303  12 H  s         
   117     0.766090   0.005221   1 C  s               159    -0.766079  -0.005221   4 C  s         
   205     0.544432  -0.000461   8 H  s               220    -0.544392   0.000461  11 H  s         
   215     0.544196   0.007881  10 H  s               200    -0.544156  -0.007881   7 H  s         
   163    -0.532504  -0.003638   4 C  px              121    -0.532502  -0.003638   1 C  px        

 Vector   53  Occ=0.000000D+00  E=-5.967413D-02
              MO Center= -1.2D-13, -2.9D-13, -9.6D-16, r^2= 1.1D-07
  Bfn.         Coefficient        Function           Bfn.         Coefficient        Function  
  ----     -------------------  ------------         ----     -------------------  ------------
   200     1.008304   0.044138   7 H  s               215    -1.008275  -0.044137  10 H  s         
   220    -1.008420  -0.039519  11 H  s               205     1.008392   0.039518   8 H  s         
   131    -0.601608  -0.026543   2 C  s               173     0.601578   0.026542   5 C  s         
   187     0.601701   0.023373   6 C  s               145    -0.601672  -0.023371   3 C  s         
   192     0.386398   0.015025   6 C  py              150     0.386387   0.015025   3 C  py        

 Vector   54  Occ=0.000000D+00  E=-5.961988D-02
              MO Center= -9.1D-09, -3.2D-09,  1.8D-16, r^2= 2.6D-03
  Bfn.         Coefficient        Function           Bfn.         Coefficient        Function  
  ----     -------------------  ------------         ----     -------------------  ------------
    86     0.014815  -1.008626   7 H  s               101    -0.014814   1.008596  10 H  s         
   106    -0.016947   1.008537  11 H  s                91     0.016946  -1.008508   8 H  s         
    17    -0.008662   0.599519   2 C  s                73     0.010217  -0.599476   6 C  s         
    59     0.008661  -0.599488   5 C  s                31    -0.010217   0.599445   3 C  s         
    78     0.006657  -0.387396   6 C  py               36     0.006657  -0.387385   3 C  py        

 Vector   55  Occ=0.000000D+00  E=-3.846831D-02
              MO Center= -5.8D-05,  1.1D-06,  3.1D-12, r^2= 8.8D+00
  Bfn.         Coefficient        Function           Bfn.         Coefficient        Function  
  ----     -------------------  ------------         ----     -------------------  ------------
     3    -1.977636  -0.031810   1 C  s                45    -1.977590  -0.031809   4 C  s         
    73     1.050396   0.017601   6 C  s                31     1.050361   0.017601   3 C  s         
    17     1.049965   0.016183   2 C  s                59     1.049930   0.016182   5 C  s         
   111     1.035545   0.016657  12 H  s                96     1.035530   0.016656   9 H  s         
   106    -0.613894  -0.010476  11 H  s                91    -0.613838  -0.010475   8 H  s         

 Vector   56  Occ=0.000000D+00  E=-3.097082D-02
              MO Center=  1.4D-12, -2.1D-14, -1.1D-14, r^2= 1.3D-06
  Bfn.         Coefficient        Function           Bfn.         Coefficient        Function  
  ----     -------------------  ------------         ----     -------------------  ------------
   117    -1.882944   0.021445   1 C  s               159    -1.882906   0.021445   4 C  s         
   225     1.137728  -0.012958  12 H  s               210     1.137705  -0.012958   9 H  s         
   187     0.978796  -0.012703   6 C  s               145     0.978765  -0.012703   3 C  s         
   131     0.978379  -0.009588   2 C  s               173     0.978349  -0.009587   5 C  s         
   220    -0.625094   0.008243  11 H  s               205    -0.625034   0.008242   8 H  s         

 Vector   57  Occ=0.000000D+00  E=-2.399614D-02
              MO Center=  5.4D-09,  9.1D-10,  2.1D-16, r^2= 2.6D-03
  Bfn.         Coefficient        Function           Bfn.         Coefficient        Function  
  ----     -------------------  ------------         ----     -------------------  ------------
    17     0.027137  -1.726780   2 C  s                59     0.027137  -1.726775   5 C  s         
    73    -0.028401   1.726473   6 C  s                31    -0.028401   1.726468   3 C  s         
   101    -0.016940   1.070763  10 H  s                86    -0.016940   1.070741   7 H  s         
    91     0.017499  -1.070552   8 H  s               106     0.017499  -1.070530  11 H  s         
     8     0.008287  -0.515251   1 C  py               50    -0.008287   0.515226   4 C  py        

 Vector   58  Occ=0.000000D+00  E=-2.293417D-02
              MO Center= -3.1D-14, -8.7D-15,  2.6D-16, r^2= 3.1D-09
  Bfn.         Coefficient        Function           Bfn.         Coefficient        Function  
  ----     -------------------  ------------         ----     -------------------  ------------
   131     1.704310   0.012199   2 C  s               173     1.704306   0.012199   5 C  s         
   187    -1.704039  -0.010057   6 C  s               145    -1.704035  -0.010057   3 C  s         
   215    -1.081031  -0.007666  10 H  s               200    -1.081009  -0.007666   7 H  s         
   205     1.080840   0.006451   8 H  s               220     1.080818   0.006450  11 H  s         
   122     0.492380   0.003212   1 C  py              164    -0.492358  -0.003212   4 C  py        

 Vector   59  Occ=0.000000D+00  E=-4.451399D-03
              MO Center=  7.9D-05, -1.3D-06, -5.2D-13, r^2= 1.1D+01
  Bfn.         Coefficient        Function           Bfn.         Coefficient        Function  
  ----     -------------------  ------------         ----     -------------------  ------------
   101     1.034627   0.016766  10 H  s                91     1.034626   0.016431   8 H  s         
    86    -1.034596  -0.016765   7 H  s               106    -1.034595  -0.016431  11 H  s         
    96    -0.927666  -0.014882   9 H  s               111     0.927615   0.014882  12 H  s         
    45     0.694397   0.011140   4 C  s                 3    -0.694295  -0.011139   1 C  s         
    31    -0.480820  -0.007528   3 C  s                73     0.480765   0.007527   6 C  s         

 Vector   60  Occ=0.000000D+00  E=-6.356316D-04
              MO Center=  1.6D-12, -6.0D-15,  4.3D-15, r^2= 5.7D-08
  Bfn.         Coefficient        Function           Bfn.         Coefficient        Function  
  ----     -------------------  ------------         ----     -------------------  ------------
   215     1.047796  -0.002022  10 H  s               205     1.047793  -0.001817   8 H  s         
   200    -1.047763   0.002022   7 H  s               220    -1.047760   0.001817  11 H  s         
   210    -0.979572   0.001795   9 H  s               225     0.979514  -0.001794  12 H  s         
   159     0.535785  -0.000982   4 C  s               117    -0.535681   0.000981   1 C  s         
   163     0.534084  -0.000980   4 C  px              121     0.534076  -0.000980   1 C  px        

 Vector   61  Occ=0.000000D+00  E= 5.163795D-02
              MO Center= -3.9D-05,  7.2D-07,  8.0D-14, r^2= 6.4D+00
  Bfn.         Coefficient        Function           Bfn.         Coefficient        Function  
  ----     -------------------  ------------         ----     -------------------  ------------
     3    -1.923078  -0.030775   1 C  s                45    -1.922923  -0.030773   4 C  s         
     7    -1.343447  -0.021492   1 C  px               49     1.343412   0.021491   4 C  px        
    22     0.927607   0.015597   2 C  py               64    -0.927542  -0.015596   5 C  py        
    78    -0.921534  -0.013973   6 C  py               36     0.921470   0.013972   3 C  py        
    96    -0.911150  -0.014581   9 H  s               111    -0.911139  -0.014581  12 H  s         

 Vector   62  Occ=0.000000D+00  E= 5.923031D-02
              MO Center= -1.8D-12, -3.3D-13,  2.2D-14, r^2= 6.4D-07
  Bfn.         Coefficient        Function           Bfn.         Coefficient        Function  
  ----     -------------------  ------------         ----     -------------------  ------------
   117    -2.030948   0.211910   1 C  s               159    -2.030799   0.211895   4 C  s         
   121    -1.323084   0.138042   1 C  px              163     1.323055  -0.138039   4 C  px        
   145     0.952992  -0.097684   3 C  s               187     0.952965  -0.097681   6 C  s         
   173     0.952253  -0.101111   5 C  s               131     0.952225  -0.101108   2 C  s         
   136     0.935093  -0.098410   2 C  py              178    -0.935032   0.098404   5 C  py        

 Vector   63  Occ=0.000000D+00  E= 6.294680D-02
              MO Center= -1.1D-08, -1.0D-09, -7.7D-17, r^2= 1.2D-03
  Bfn.         Coefficient        Function           Bfn.         Coefficient        Function  
  ----     -------------------  ------------         ----     -------------------  ------------
     8     0.029188  -1.828854   1 C  py               50     0.029186  -1.828765   4 C  py        
    17     0.029389  -1.797760   2 C  s                59    -0.029387   1.797613   5 C  s         
    73    -0.027985   1.797619   6 C  s                31     0.027982  -1.797473   3 C  s         
    35     0.011889  -0.707176   3 C  px               77     0.011888  -0.707120   6 C  px        
    63    -0.010397   0.687868   5 C  px               21    -0.010396   0.687810   2 C  px        

 Vector   64  Occ=0.000000D+00  E= 6.719241D-02
              MO Center=  1.4D-12,  1.9D-13,  9.7D-16, r^2= 2.0D-07
  Bfn.         Coefficient        Function           Bfn.         Coefficient        Function  
  ----     -------------------  ------------         ----     -------------------  ------------
   122    -1.842046  -0.027001   1 C  py              164    -1.841950  -0.027000   4 C  py        
   131    -1.810477  -0.025757   2 C  s               173     1.810309   0.025755   5 C  s         
   187     1.810187   0.027323   6 C  s               145    -1.810021  -0.027320   3 C  s         
   149    -0.711108  -0.009753   3 C  px              191    -0.711044  -0.009752   6 C  px        
   177     0.691606   0.010788   5 C  px              135     0.691540   0.010787   2 C  px        

 Vector   65  Occ=0.000000D+00  E= 8.368558D-02
              MO Center=  1.1D-08,  5.4D-09, -1.1D-16, r^2= 1.6D-03
  Bfn.         Coefficient        Function           Bfn.         Coefficient        Function  
  ----     -------------------  ------------         ----     -------------------  ------------
    59    -0.040315   2.446264   5 C  s                17    -0.040312   2.446131   2 C  s         
    31     0.038693  -2.446021   3 C  s                73     0.038691  -2.445885   6 C  s         
    21    -0.017226   1.089872   2 C  px               63     0.017226  -1.089817   5 C  px        
    50     0.017162  -1.061794   4 C  py                8    -0.017160   1.061659   1 C  py        
    77     0.017503  -1.059136   6 C  px               35    -0.017501   1.059082   3 C  px        

 Vector   66  Occ=0.000000D+00  E= 8.583618D-02
              MO Center= -1.6D-12, -2.0D-14, -1.7D-15, r^2= 1.4D-07
  Bfn.         Coefficient        Function           Bfn.         Coefficient        Function  
  ----     -------------------  ------------         ----     -------------------  ------------
   173    -2.472032   0.015206   5 C  s               131    -2.471885   0.015204   2 C  s         
   145     2.471761  -0.013379   3 C  s               187     2.471613  -0.013378   6 C  s         
   135    -1.108572   0.005999   2 C  px              177     1.108513  -0.006000   5 C  px        
   191     1.078381  -0.006672   6 C  px              149    -1.078321   0.006671   3 C  px        
   164     1.050459  -0.006090   4 C  py              122    -1.050312   0.006089   1 C  py        

 Vector   67  Occ=0.000000D+00  E= 8.634702D-02
              MO Center=  4.1D-05, -3.6D-07, -8.9D-13, r^2= 5.1D+00
  Bfn.         Coefficient        Function           Bfn.         Coefficient        Function  
  ----     -------------------  ------------         ----     -------------------  ------------
    45     2.565736   0.040015   4 C  s                 3    -2.565611  -0.040013   1 C  s         
    35    -1.418986  -0.022319   3 C  px               77    -1.418969  -0.022320   6 C  px        
    63    -1.385834  -0.021445   5 C  px               21    -1.385817  -0.021443   2 C  px        
    64     1.069206   0.016050   5 C  py               22     1.069153   0.016050   2 C  py        
    36    -1.024233  -0.016594   3 C  py               78    -1.024180  -0.016592   6 C  py        

 Vector   68  Occ=0.000000D+00  E= 9.192303D-02
              MO Center=  1.9D-12, -1.4D-13,  1.2D-14, r^2= 8.2D-07
  Bfn.         Coefficient        Function           Bfn.         Coefficient        Function  
  ----     -------------------  ------------         ----     -------------------  ------------
   159    -2.341735  -0.029525   4 C  s               117     2.341600   0.029524   1 C  s         
   149     1.488606   0.018540   3 C  px              191     1.488587   0.018539   6 C  px        
   177     1.458882   0.018603   5 C  px              135     1.458864   0.018603   2 C  px        
   187     1.100618   0.014724   6 C  s               145    -1.100551  -0.014724   3 C  s         
   131     1.100077   0.013023   2 C  s               173    -1.100012  -0.013021   5 C  s         

 Vector   69  Occ=0.000000D+00  E= 1.625933D-01
              MO Center= -2.4D-05,  3.8D-07,  8.2D-12, r^2= 3.6D+00
  Bfn.         Coefficient        Function           Bfn.         Coefficient        Function  
  ----     -------------------  ------------         ----     -------------------  ------------
    17     0.791858   0.012348   2 C  s                59     0.791816   0.012348   5 C  s         
    73     0.791681   0.012828   6 C  s                31     0.791639   0.012827   3 C  s         
     2    -0.700441  -0.011136   1 C  s                44    -0.700415  -0.011136   4 C  s         
    72    -0.635342  -0.010090   6 C  s                30    -0.635330  -0.010090   3 C  s         
    16    -0.635321  -0.010112   2 C  s                58    -0.635309  -0.010112   5 C  s         

 Vector   70  Occ=0.000000D+00  E= 1.685142D-01
              MO Center= -1.5D-12,  9.6D-15, -3.8D-15, r^2= 1.5D-07
  Bfn.         Coefficient        Function           Bfn.         Coefficient        Function  
  ----     -------------------  ------------         ----     -------------------  ------------
   131     0.879839   0.013365   2 C  s               173     0.879793   0.013365   5 C  s         
   187     0.879639   0.012797   6 C  s               145     0.879593   0.012797   3 C  s         
   186    -0.656484  -0.009774   6 C  s               130    -0.656480  -0.009750   2 C  s         
   144    -0.656475  -0.009774   3 C  s               172    -0.656470  -0.009749   5 C  s         
   116    -0.655274  -0.009744   1 C  s               158    -0.655254  -0.009743   4 C  s         

 Vector   71  Occ=0.000000D+00  E= 2.194837D-01
              MO Center= -1.8D-09, -6.6D-10,  9.0D-17, r^2= 1.5D-03
  Bfn.         Coefficient        Function           Bfn.         Coefficient        Function  
  ----     -------------------  ------------         ----     -------------------  ------------
    50    -0.008015   0.499630   4 C  py                8    -0.008015   0.499616   1 C  py        
    35     0.003689  -0.423034   3 C  px               77     0.003689  -0.423032   6 C  px        
    63    -0.009785   0.417086   5 C  px               21    -0.009785   0.417084   2 C  px        
     5     0.004672  -0.293694   1 C  py               47     0.004672  -0.293684   4 C  py        
    74    -0.004457   0.264472   6 C  px               32    -0.004457   0.264468   3 C  px        

 Vector   72  Occ=0.000000D+00  E= 2.209225D-01
              MO Center= -4.8D-12,  2.9D-14, -1.3D-15, r^2= 9.6D-07
  Bfn.         Coefficient        Function           Bfn.         Coefficient        Function  
  ----     -------------------  ------------         ----     -------------------  ------------
   164    -0.531913   0.000894   4 C  py              122    -0.531900   0.000894   1 C  py        
   149     0.400406   0.001418   3 C  px              191     0.400405   0.001418   6 C  px        
   177    -0.395277   0.002758   5 C  px              135    -0.395275   0.002758   2 C  px        
   145    -0.290283  -0.006012   3 C  s               173     0.290261  -0.006948   5 C  s         
   187     0.290251   0.006012   6 C  s               131    -0.290229   0.006948   2 C  s         

 Vector   73  Occ=0.000000D+00  E= 2.325066D-01
              MO Center= -2.6D-05,  3.9D-07,  7.0D-11, r^2= 4.7D+00
  Bfn.         Coefficient        Function           Bfn.         Coefficient        Function  
  ----     -------------------  ------------         ----     -------------------  ------------
    31     2.020844   0.030695   3 C  s                73    -2.020801  -0.030694   6 C  s         
    59     2.020722   0.032829   5 C  s                17    -2.020679  -0.032828   2 C  s         
     3    -0.957286  -0.015044   1 C  s                45     0.957251   0.015043   4 C  s         
    44    -0.880466  -0.013838   4 C  s                 2     0.880453   0.013838   1 C  s         
    63    -0.840504  -0.013285   5 C  px               21    -0.840496  -0.013285   2 C  px        

 Vector   74  Occ=0.000000D+00  E= 2.407782D-01
              MO Center= -5.1D-09, -1.8D-10,  4.7D-16, r^2= 1.2D-03
  Bfn.         Coefficient        Function           Bfn.         Coefficient        Function  
  ----     -------------------  ------------         ----     -------------------  ------------
    17     0.015085  -1.499373   2 C  s                59    -0.015084   1.499314   5 C  s         
    73    -0.032455   1.498054   6 C  s                31     0.032454  -1.497995   3 C  s         
    16    -0.012258   0.721713   2 C  s                72     0.010636  -0.721738   6 C  s         
    58     0.012258  -0.721704   5 C  s                30    -0.010636   0.721729   3 C  s         
     8     0.008007  -0.509188   1 C  py               50     0.008007  -0.509186   4 C  py        

 Vector   75  Occ=0.000000D+00  E= 2.422801D-01
              MO Center= -3.9D-13,  6.0D-14,  5.4D-16, r^2= 2.8D-08
  Bfn.         Coefficient        Function           Bfn.         Coefficient        Function  
  ----     -------------------  ------------         ----     -------------------  ------------
   131    -1.472743   0.234290   2 C  s               173     1.472685  -0.234280   5 C  s         
   187     1.458435  -0.273969   6 C  s               145    -1.458377   0.273959   3 C  s         
   130     0.696519  -0.119873   2 C  s               172    -0.696512   0.119872   5 C  s         
   186    -0.695888   0.121567   6 C  s               144     0.695880  -0.121566   3 C  s         
   122    -0.462183   0.080027   1 C  py              164    -0.462180   0.080026   4 C  py        

 Vector   76  Occ=0.000000D+00  E= 2.428395D-01
              MO Center= -2.7D-05,  4.5D-07, -7.7D-12, r^2= 6.2D+00
  Bfn.         Coefficient        Function           Bfn.         Coefficient        Function  
  ----     -------------------  ------------         ----     -------------------  ------------
    59    -5.987552  -0.092794   5 C  s                17     5.987548   0.092793   2 C  s         
    31    -5.987371  -0.097522   3 C  s                73     5.987367   0.097522   6 C  s         
    45     5.102314   0.081090   4 C  s                 3    -5.102307  -0.081090   1 C  s         
    49    -2.686366  -0.042694   4 C  px                7    -2.686365  -0.042694   1 C  px        
    36    -2.316040  -0.037501   3 C  py               78    -2.316036  -0.037501   6 C  py        

 Vector   77  Occ=0.000000D+00  E= 2.448882D-01
              MO Center=  3.6D-12,  7.7D-14,  9.0D-15, r^2= 4.7D-07
  Bfn.         Coefficient        Function           Bfn.         Coefficient        Function  
  ----     -------------------  ------------         ----     -------------------  ------------
   145    -4.879725   0.321503   3 C  s               187     4.879690  -0.321501   6 C  s         
   173    -4.878544   0.308692   5 C  s               131     4.878509  -0.308690   2 C  s         
   159     1.877361  -0.121242   4 C  s               117    -1.877319   0.121239   1 C  s         
   177     1.716213  -0.112577   5 C  px              135     1.716213  -0.112577   2 C  px        
   163    -1.682780   0.108703   4 C  px              121    -1.682769   0.108703   1 C  px        

[...]
   202     0.615729   0.002369   7 H  py              217     0.615728   0.002369  10 H  py        
   130    -0.482492  -0.001742   2 C  s               172     0.482491   0.001742   5 C  s         

 Vector  214  Occ=0.000000D+00  E= 2.523269D+00
              MO Center=  1.4D-09, -1.8D-08,  1.3D-16, r^2= 1.5D-03
  Bfn.         Coefficient        Function           Bfn.         Coefficient        Function  
  ----     -------------------  ------------         ----     -------------------  ------------
   105     0.011000  -0.637837  11 H  s                90    -0.011000   0.637834   8 H  s         
    85    -0.009521   0.637857   7 H  s               100     0.009520  -0.637854  10 H  s         
   108    -0.010937   0.629346  11 H  py               93    -0.010937   0.629345   8 H  py        
    88    -0.009107   0.616154   7 H  py              103    -0.009107   0.616153  10 H  py        
    16     0.007197  -0.481550   2 C  s                58    -0.007196   0.481548   5 C  s         

 Vector  215  Occ=0.000000D+00  E= 2.576179D+00
              MO Center= -1.5D-09,  1.7D-10,  1.6D-18, r^2= 8.4D-04
  Bfn.         Coefficient        Function           Bfn.         Coefficient        Function  
  ----     -------------------  ------------         ----     -------------------  ------------
    10     0.012812  -0.805113   1 C  d -2             52    -0.012812   0.805111   4 C  d -2      
    28    -0.005472   0.380157   2 C  d  2             70     0.005472  -0.380150   5 C  d  2      
    84     0.006408  -0.367845   6 C  d  2             42    -0.006408   0.367838   3 C  d  2      
   113     0.004873  -0.305134  12 H  py               98     0.004873  -0.305131   9 H  py        
     5     0.004489  -0.281547   1 C  py               47     0.004489  -0.281546   4 C  py        

 Vector  216  Occ=0.000000D+00  E= 2.579785D+00
              MO Center=  8.6D-14, -8.5D-16,  1.7D-18, r^2= 3.3D-08
  Bfn.         Coefficient        Function           Bfn.         Coefficient        Function  
  ----     -------------------  ------------         ----     -------------------  ------------
   124    -0.806704   0.000397   1 C  d -2            166     0.806702  -0.000397   4 C  d -2      
   142     0.378536   0.000423   2 C  d  2            184    -0.378530  -0.000423   5 C  d  2      
   198    -0.366140   0.000766   6 C  d  2            156     0.366133  -0.000766   3 C  d  2      
   227    -0.304120   0.000167  12 H  py              212    -0.304117   0.000167   9 H  py        
   119    -0.282530   0.000148   1 C  py              161    -0.282530   0.000148   4 C  py        

 Vector  217  Occ=0.000000D+00  E= 2.613805D+00
              MO Center=  5.1D-06, -7.6D-08,  7.4D-14, r^2= 3.7D+00
  Bfn.         Coefficient        Function           Bfn.         Coefficient        Function  
  ----     -------------------  ------------         ----     -------------------  ------------
    59    -3.276331  -0.125087   5 C  s                17     3.276317   0.125086   2 C  s         
    31    -3.276299  -0.124834   3 C  s                73     3.276285   0.124834   6 C  s         
    45     2.994089   0.114196   4 C  s                 3    -2.994065  -0.114195   1 C  s         
    49    -1.172138  -0.044708   4 C  px                7    -1.172125  -0.044707   1 C  px        
    36    -0.954920  -0.036623   3 C  py               78    -0.954914  -0.036623   6 C  py        

 Vector  218  Occ=0.000000D+00  E= 2.617676D+00
              MO Center=  1.3D-14, -2.7D-16,  1.4D-16, r^2= 3.7D-09
  Bfn.         Coefficient        Function           Bfn.         Coefficient        Function  
  ----     -------------------  ------------         ----     -------------------  ------------
   173     2.885358   0.032811   5 C  s               131    -2.885345  -0.032811   2 C  s         
   145     2.885325   0.033072   3 C  s               187    -2.885312  -0.033072   6 C  s         
   159    -2.654890  -0.030311   4 C  s               117     2.654868   0.030310   1 C  s         
   163     1.039224   0.011863   4 C  px              121     1.039211   0.011863   1 C  px        
   150     0.840182   0.009377   3 C  py              192     0.840176   0.009377   6 C  py        

 Vector  219  Occ=0.000000D+00  E= 2.650339D+00
              MO Center=  5.9D-06, -1.2D-07, -6.0D-13, r^2= 3.7D+00
  Bfn.         Coefficient        Function           Bfn.         Coefficient        Function  
  ----     -------------------  ------------         ----     -------------------  ------------
    59    -3.689210  -0.058760   5 C  s                17     3.689201   0.058760   2 C  s         
    31    -3.689143  -0.058887   3 C  s                73     3.689134   0.058887   6 C  s         
    45     3.470700   0.055340   4 C  s                 3    -3.470682  -0.055340   1 C  s         
    49    -1.257710  -0.020053   4 C  px                7    -1.257708  -0.020053   1 C  px        
    36    -1.169856  -0.018530   3 C  py               78    -1.169854  -0.018530   6 C  py        

 Vector  220  Occ=0.000000D+00  E= 2.655360D+00
              MO Center=  2.1D-14, -5.3D-17, -1.2D-16, r^2= 4.0D-09
  Bfn.         Coefficient        Function           Bfn.         Coefficient        Function  
  ----     -------------------  ------------         ----     -------------------  ------------
   173    -4.011494   0.021401   5 C  s               131     4.011483  -0.021401   2 C  s         
   145    -4.011430   0.021509   3 C  s               187     4.011420  -0.021509   6 C  s         
   159     3.792719  -0.020286   4 C  s               117    -3.792698   0.020285   1 C  s         
   163    -1.375754   0.007357   4 C  px              121    -1.375749   0.007357   1 C  px        
   150    -1.269609   0.006683   3 C  py              192    -1.269606   0.006683   6 C  py        

 Vector  221  Occ=0.000000D+00  E= 2.834121D+00
              MO Center=  3.9D-08, -3.5D-08, -1.8D-13, r^2= 4.1D+00
  Bfn.         Coefficient        Function           Bfn.         Coefficient        Function  
  ----     -------------------  ------------         ----     -------------------  ------------
    14    -0.770045  -0.012235   1 C  d  2             56    -0.770044  -0.012235   4 C  d  2      
   110     0.738826   0.011745  12 H  s                95     0.738826   0.011745   9 H  s         
     7     0.727582   0.011563   1 C  px               49    -0.727577  -0.011563   4 C  px        
    97    -0.696572  -0.011075   9 H  px              112     0.696571   0.011075  12 H  px        
     4     0.427701   0.006799   1 C  px               46    -0.427701  -0.006799   4 C  px        

 Vector  222  Occ=0.000000D+00  E= 2.837770D+00
              MO Center=  7.1D-15, -2.4D-16, -2.1D-16, r^2= 7.9D-09
  Bfn.         Coefficient        Function           Bfn.         Coefficient        Function  
  ----     -------------------  ------------         ----     -------------------  ------------
   128     0.771948  -0.000341   1 C  d  2            170     0.771947  -0.000341   4 C  d  2      
   224    -0.742237   0.000333  12 H  s               209    -0.742237   0.000333   9 H  s         
   121    -0.721807   0.000321   1 C  px              163     0.721802  -0.000321   4 C  px        
   211     0.699148  -0.000316   9 H  px              226    -0.699147   0.000316  12 H  px        
   118    -0.429817   0.000193   1 C  px              160     0.429816  -0.000193   4 C  px        

 Vector  223  Occ=0.000000D+00  E= 2.912983D+00
              MO Center=  1.4D-09, -7.0D-11, -3.8D-17, r^2= 9.9D-04
  Bfn.         Coefficient        Function           Bfn.         Coefficient        Function  
  ----     -------------------  ------------         ----     -------------------  ------------
   100     0.010209  -0.634223  10 H  s                85     0.010209  -0.634221   7 H  s         
    90    -0.009670   0.634131   8 H  s               105    -0.009670   0.634129  11 H  s         
    36    -0.009500   0.622250   3 C  py               78     0.009500  -0.622248   6 C  py        
    64    -0.009954   0.619202   5 C  py               22     0.009954  -0.619201   2 C  py        
    66    -0.008946   0.556598   5 C  d -2             24    -0.008946   0.556597   2 C  d -2      

 Vector  224  Occ=0.000000D+00  E= 2.913514D+00
              MO Center=  3.2D-15,  2.1D-17,  1.2D-18, r^2= 6.0D-09
  Bfn.         Coefficient        Function           Bfn.         Coefficient        Function  
  ----     -------------------  ------------         ----     -------------------  ------------
   214    -0.635407   0.006810  10 H  s               199    -0.635405   0.006810   7 H  s         
   204     0.635312  -0.006257   8 H  s               219     0.635310  -0.006257  11 H  s         
   150     0.618728  -0.006103   3 C  py              192    -0.618726   0.006103   6 C  py        
   178     0.615485  -0.006584   5 C  py              136    -0.615484   0.006584   2 C  py        
   180     0.560028  -0.005987   5 C  d -2            138     0.560027  -0.005987   2 C  d -2      

 Vector  225  Occ=0.000000D+00  E= 2.982080D+00
              MO Center=  1.8D-09, -5.3D-12,  2.6D-17, r^2= 9.5D-04
  Bfn.         Coefficient        Function           Bfn.         Coefficient        Function  
  ----     -------------------  ------------         ----     -------------------  ------------
    50     0.017185  -1.068361   4 C  py                8    -0.017185   1.068360   1 C  py        
    35     0.016352  -1.016936   3 C  px               77    -0.016352   1.016936   6 C  px        
    63    -0.016135   1.002683   5 C  px               21     0.016135  -1.002683   2 C  px        
    52     0.009295  -0.577977   4 C  d -2             10     0.009295  -0.577971   1 C  d -2      
    70    -0.008849   0.550086   5 C  d  2             28    -0.008849   0.550083   2 C  d  2      

 Vector  226  Occ=0.000000D+00  E= 2.983914D+00
              MO Center=  2.6D-15, -1.4D-16,  2.5D-19, r^2= 2.6D-09
  Bfn.         Coefficient        Function           Bfn.         Coefficient        Function  
  ----     -------------------  ------------         ----     -------------------  ------------
   164     1.067977  -0.000074   4 C  py              122    -1.067976   0.000074   1 C  py        
   149     1.015114  -0.000065   3 C  px              191    -1.015113   0.000065   6 C  px        
   177    -1.000797   0.000076   5 C  px              135     1.000797  -0.000076   2 C  px        
   166     0.581715  -0.000039   4 C  d -2            124     0.581709  -0.000039   1 C  d -2      
   184    -0.552560   0.000040   5 C  d  2            142    -0.552557   0.000040   2 C  d  2      

 Vector  227  Occ=0.000000D+00  E= 3.365296D+00
              MO Center=  5.7D-06, -8.1D-08,  6.9D-14, r^2= 3.4D+00
  Bfn.         Coefficient        Function           Bfn.         Coefficient        Function  
  ----     -------------------  ------------         ----     -------------------  ------------
    59    -1.222275  -0.019528   5 C  s                17     1.222273   0.019528   2 C  s         
    31    -1.222256  -0.019524   3 C  s                73     1.222254   0.019523   6 C  s         
    45     1.134892   0.018130   4 C  s                 3    -1.134888  -0.018130   1 C  s         
    49    -0.953055  -0.015225   4 C  px                7    -0.953051  -0.015225   1 C  px        
    36    -0.860493  -0.013752   3 C  py               78    -0.860491  -0.013752   6 C  py        

 Vector  228  Occ=0.000000D+00  E= 3.367395D+00
              MO Center=  7.5D-15, -4.9D-17,  3.0D-18, r^2= 3.1D-09
  Bfn.         Coefficient        Function           Bfn.         Coefficient        Function  
  ----     -------------------  ------------         ----     -------------------  ------------
   173     1.216534  -0.001570   5 C  s               131    -1.216532   0.001570   2 C  s         
   145     1.216514  -0.001565   3 C  s               187    -1.216512   0.001565   6 C  s         
   159    -1.128422   0.001454   4 C  s               117     1.128418  -0.001454   1 C  s         
   163     0.951303  -0.001225   4 C  px              121     0.951299  -0.001225   1 C  px        
   150     0.858204  -0.001111   3 C  py              192     0.858202  -0.001111   6 C  py        


   alpha - beta orbital overlaps 
   ----------------------------- 


   alpha      1      2      3      4      5      6      7      8      9     10
    beta      1      2      2      4      5     20      4      5     20      5
 overlap   1.043  0.298  0.121  0.227  0.218  0.064  0.101  0.076  0.035  0.009


   alpha     11     12     13     14     15     16     17     18     19     20
    beta     20     15     62      4     15     16     16     18     19     20
 overlap   0.007  0.002  0.003  0.008  1.042  0.277  0.096  0.216  0.212  0.147


   alpha     21     22     23     24     25     26     27     28     29     30
    beta     18     19     20     33     20     16     20     18     29     30
 overlap   0.072  0.081  0.086  0.008  0.004  0.005  0.005  0.008  1.042  0.277


   alpha     31     32     33     34     35     36     37     38     39     40
    beta     30     32     33     20     32     33     20     19     20     30
 overlap   0.096  0.216  0.212  0.147  0.071  0.082  0.086  0.008  0.004  0.005


   alpha     41     42     43     44     45     46     47     48     49     50
    beta     20     32     43     44     44     46     47     62     46     47
 overlap   0.005  0.008  1.043  0.298  0.121  0.227  0.218  0.064  0.101  0.076


   alpha     51     52     53     54     55     56     57     58     59     60
    beta     62     47     62     57     20     46     57     58     58     60
 overlap   0.035  0.009  0.007  0.002  0.003  0.008  1.042  0.277  0.096  0.216


   alpha     61     62     63     64     65     66     67     68     69     70
    beta     61     62     60     61     62     75     62     58     62     60
 overlap   0.212  0.147  0.072  0.081  0.086  0.008  0.004  0.005  0.005  0.008


   alpha     71     72     73     74     75     76     77     78     79     80
    beta     71     72     72     74     75     62     74     75     62     61
 overlap   1.042  0.277  0.096  0.216  0.212  0.147  0.071  0.082  0.086  0.008


   alpha     81     82     83     84     85     86     87     88     89     90
    beta     62     72     62     74     85     85     16     16     20     90
 overlap   0.004  0.005  0.005  0.008  0.159  0.038  0.005  0.008  0.004  0.159


   alpha     91     92     93     94     95     96     97     98     99    100
    beta     90     30     30     20     46     46     44     47     62    100
 overlap   0.038  0.005  0.008  0.004  0.164  0.037  0.010  0.004  0.001  0.159


   alpha    101    102    103    104    105    106    107    108    109    110
    beta    100     58     58     62    105    105     72     72     62      4
 overlap   0.038  0.005  0.008  0.004  0.159  0.038  0.005  0.008  0.004  0.164


   alpha    111    112    113    114
    beta      4      2      5     20
 overlap   0.037  0.010  0.004  0.001

     --------------------------
     Expectation value of S2:  
     --------------------------
      <S2> =      0.7698 (Exact =     0.7500)


     Multipole analysis of the density
     ---------------------------------

     L   x y z        total         alpha         beta         nuclear
     -   - - -        -----         -----         ----         -------
     0   0 0 0      1.000000    -21.000000    -20.000000     42.000000

     1   1 0 0      0.000067      0.000029      0.000038      0.000000
     1   0 1 0     -0.000001     -0.000000     -0.000001      0.000000
     1   0 0 1     -0.000000     -0.000000      0.000000      0.000000

     2   2 0 0    -13.576345   -106.651947    -99.474143    192.549745
     2   1 1 0     -0.031634     -0.071409     -0.174889      0.214664
     2   1 0 1      0.000000     -0.000000      0.000000      0.000000
     2   0 2 0    -15.548840   -111.092150   -110.361987    205.905297
     2   0 1 1      0.000000      0.000000      0.000000      0.000000
     2   0 0 2    -26.594293    -14.364431    -12.229862      0.000000


 Task  times  cpu:       29.4s     wall:       29.5s


                                NWChem Input Module
                                -------------------


 Summary of allocated global arrays
-----------------------------------
  No active global arrays



                         GA Statistics for process    0
                         ------------------------------

       create   destroy   get      put      acc     scatter   gather  read&inc
calls: 2076     2076     1.59e+05 7891     2.75e+04    0        0     2108     
number of processes/call 1.93e+00 1.07e+01 1.71e+00 0.00e+00 0.00e+00
bytes total:             1.31e+08 5.38e+07 2.50e+07 0.00e+00 0.00e+00 1.69e+04
bytes remote:            1.19e+08 3.99e+07 2.33e+07 0.00e+00 0.00e+00 0.00e+00
Max memory consumed for GA by this process: 1961072 bytes

MA_summarize_allocated_blocks: starting scan ...
heap block 'gridpts', handle 81, address 0x12efc5d8:
	type of elements:		double precision
	number of elements:		65416309
	address of client space:	0x12efc640
	index for client space:		12073615
	total number of bytes:		523330584
MA_summarize_allocated_blocks: scan completed: 1 heap block, 0 stack blocks
MA usage statistics:

	allocation statistics:
					      heap	     stack
					      ----	     -----
	current number of blocks	         1	         0
	maximum number of blocks	        21	        57
	current total bytes		 523330584	         0
	maximum total bytes		 527110856	  23368600
	maximum total K-bytes		    527111	     23369
	maximum total M-bytes		       528	        24


                                     CITATION
                                     --------
                Please cite the following reference when publishing
                           results obtained with NWChem:

                 M. Valiev, E.J. Bylaska, N. Govind, K. Kowalski,
              T.P. Straatsma, H.J.J. van Dam, D. Wang, J. Nieplocha,
                        E. Apra, T.L. Windus, W.A. de Jong
                 "NWChem: a comprehensive and scalable open-source
                  solution for large scale molecular simulations"
                      Comput. Phys. Commun. 181, 1477 (2010)
                           doi:10.1016/j.cpc.2010.04.018

                                      AUTHORS
                                      -------
          E. Apra, E. J. Bylaska, W. A. de Jong, N. Govind, K. Kowalski,
       T. P. Straatsma, M. Valiev, H. J. J. van Dam, D. Wang, T. L. Windus,
        J. Hammond, J. Autschbach, K. Bhaskaran-Nair, J. Brabec, K. Lopata,
    S. A. Fischer, S. Krishnamoorthy, M. Jacquelin, W. Ma, M. Klemm, O. Villa,
      Y. Chen, V. Anisimov, F. Aquino, S. Hirata, M. T. Hackler, V. Konjkov,
            D. Mejia-Rodriguez, T. Risthaus, M. Malagoli, A. Marenich,
   A. Otero-de-la-Roza, J. Mullin, P. Nichols, R. Peverati, J. Pittner, Y. Zhao,
        P.-D. Fan, A. Fonari, M. J. Williamson, R. J. Harrison, J. R. Rehr,
      M. Dupuis, D. Silverstein, D. M. A. Smith, J. Nieplocha, V. Tipparaju,
    M. Krishnan, B. E. Van Kuiken, A. Vazquez-Mayagoitia, L. Jensen, M. Swart,
      Q. Wu, T. Van Voorhis, A. A. Auer, M. Nooijen, L. D. Crosby, E. Brown,
      G. Cisneros, G. I. Fann, H. Fruchtl, J. Garza, K. Hirao, R. A. Kendall,
      J. A. Nichols, K. Tsemekhman, K. Wolinski, J. Anchell, D. E. Bernholdt,
      P. Borowski, T. Clark, D. Clerc, H. Dachsel, M. J. O. Deegan, K. Dyall,
    D. Elwood, E. Glendening, M. Gutowski, A. C. Hess, J. Jaffe, B. G. Johnson,
     J. Ju, R. Kobayashi, R. Kutteh, Z. Lin, R. Littlefield, X. Long, B. Meng,
      T. Nakajima, S. Niu, L. Pollack, M. Rosing, K. Glaesemann, G. Sandrone,
      M. Stave, H. Taylor, G. Thomas, J. H. van Lenthe, A. T. Wong, Z. Zhang.

 Total times  cpu:       29.4s     wall:       30.6s
