 argument  1 = benzene_gamma2_ma-zora-def2-svp_pbe0_dft.nw



============================== echo of input deck ==============================
echo

scratch_dir ./scratch

title "benzene_gamma2_ma-zora-def2-svp_pbe0_dft"

Charge 1

basis "ao basis" spherical
  * library ma-zora-def2-svp except C
  C    S
     1238.40169380             5.727408300E-03
      186.29004992             4.213600060E-02
       42.25117635             1.866435633E-01
       11.67655793             4.678258158E-01
        3.59305065             4.421228295E-01
  C    S
        0.40245147             1.000000000E+00
  C    S
        0.13090183            -1.000000000E+00
  C    P
        9.46809706             5.701225280E-02
        2.01035451             3.130476217E-01
        0.54771005             7.605188875E-01
  C    P
        0.15268614             1.000000000E+00
  C    D
        0.80000000             1.000000000E+00
  #C    S
  #     0.04363394             1.000000000E+00
end

set tolguess 5e-8
set int:acc_std 1d-14

#memory total 1800 mb

dft
  direct
  xc pbe0
  decomp
  grid xfine nodisk     # Extra fine integration grid not stored on disk
  tolerances tight tol_rho 1e-13 accCoul 14     # Coulomb screening tolerances etc.
  convergence energy 5e-9 nolevelshifting       # SCF total energy convergence criterion
  iterations 200        # Maximum SCF iterations
  mult 2
end

relativistic
  zora on
  zora:cutoff 1d-30
end

geometry noautosym noautoz
C -1.40024273 0.02232486 0.00000000
C -0.71074846 -1.25212625 0.00000000
C 0.67044064 -1.27415126 0.00000000
C 1.40024254 -0.02232486 0.00000000
C 0.71074856 1.25212608 0.00000000
C -0.67044053 1.27415143 0.00000000
H -1.29869210 -2.17946235 0.00000000
H 1.22851910 -2.21976360 0.00000000
H 2.50436689 -0.03994437 0.00000000
H 1.29869187 2.17946273 0.00000000
H -1.22851937 2.21976321 0.00000000
H -2.50436664 0.03994438 0.00000000
end

task dft
================================================================================


                                         
                                         


              Northwest Computational Chemistry Package (NWChem) 6.8
              ------------------------------------------------------


                    Environmental Molecular Sciences Laboratory
                       Pacific Northwest National Laboratory
                                Richland, WA 99352

                              Copyright (c) 1994-2017
                       Pacific Northwest National Laboratory
                            Battelle Memorial Institute

             NWChem is an open-source computational chemistry package
                        distributed under the terms of the
                      Educational Community License (ECL) 2.0
             A copy of the license is included with this distribution
                              in the LICENSE.TXT file

                                  ACKNOWLEDGMENT
                                  --------------

            This software and its documentation were developed at the
            EMSL at Pacific Northwest National Laboratory, a multiprogram
            national laboratory, operated for the U.S. Department of Energy
            by Battelle under Contract Number DE-AC05-76RL01830. Support
            for this work was provided by the Department of Energy Office
            of Biological and Environmental Research, Office of Basic
            Energy Sciences, and the Office of Advanced Scientific Computing.


           Job information
           ---------------

    hostname        = SPOCK
    program         = nwchem-6.8-mpi
    date            = Wed Sep  4 09:46:36 2019

    compiled        = Thu_Mar_22_16:13:41_2018
    source          = /mnt/Data/uday/work/codes/nwchem-6.8
    nwchem branch   = 6.8
    nwchem revision = v6.8-47-gdf6c956
    ga revision     = ga-5.6.3
    use scalapack   = F
    input           = benzene_gamma2_ma-zora-def2-svp_pbe0_dft.nw
    prefix          = benzene_gamma2_ma-zora-def2-svp_pbe0_dft.
    data base       = ./benzene_gamma2_ma-zora-def2-svp_pbe0_dft.db
    status          = startup
    nproc           =       17
    time left       =     -1s



           Memory information
           ------------------

    heap     =  163840000 doubles =   1250.0 Mbytes
    stack    =  163839997 doubles =   1250.0 Mbytes
    global   =  327680000 doubles =   2500.0 Mbytes (distinct from heap & stack)
    total    =  655359997 doubles =   5000.0 Mbytes
    verify   = yes
    hardfail = no 


           Directory information
           ---------------------

  0 permanent = .
  0 scratch   = ./scratch




                                NWChem Input Module
                                -------------------


                     benzene_gamma2_ma-zora-def2-svp_pbe0_dft
                     ----------------------------------------
  library name resolved from: .nwchemrc
  library file name is: </usr/local/share/nwchem/libraries/>
  


 Summary of "ao basis" -> "" (spherical)
 ------------------------------------------------------------------------------
       Tag                 Description            Shells   Functions and Types
 ---------------- ------------------------------  ------  ---------------------
 C                       user specified              6       14   3s2p1d
 *                      ma-zora-def2-svp           all atoms except C



 Scaling coordinates for geometry "geometry" by  1.889725989
 (inverse scale =  0.529177249)



                             Geometry "geometry" -> ""
                             -------------------------

 Output coordinates in angstroms (scale by  1.889725989 to convert to a.u.)

  No.       Tag          Charge          X              Y              Z
 ---- ---------------- ---------- -------------- -------------- --------------
    1 C                    6.0000    -1.40024273     0.02232486     0.00000000
    2 C                    6.0000    -0.71074846    -1.25212625     0.00000000
    3 C                    6.0000     0.67044064    -1.27415126     0.00000000
    4 C                    6.0000     1.40024254    -0.02232486     0.00000000
    5 C                    6.0000     0.71074856     1.25212608     0.00000000
    6 C                    6.0000    -0.67044053     1.27415143     0.00000000
    7 H                    1.0000    -1.29869210    -2.17946235     0.00000000
    8 H                    1.0000     1.22851910    -2.21976360     0.00000000
    9 H                    1.0000     2.50436689    -0.03994437     0.00000000
   10 H                    1.0000     1.29869187     2.17946273     0.00000000
   11 H                    1.0000    -1.22851937     2.21976321     0.00000000
   12 H                    1.0000    -2.50436664     0.03994438     0.00000000

      Atomic Mass 
      ----------- 

      C                 12.000000
      H                  1.007825


 Effective nuclear repulsion energy (a.u.)     199.2650613035

            Nuclear Dipole moment (a.u.) 
            ----------------------------
        X                 Y               Z
 ---------------- ---------------- ----------------
     0.0000000000     0.0000000000     0.0000000000


            XYZ format geometry
            -------------------
    12
 geometry
 C                    -1.40024273     0.02232486     0.00000000
 C                    -0.71074846    -1.25212625     0.00000000
 C                     0.67044064    -1.27415126     0.00000000
 C                     1.40024254    -0.02232486     0.00000000
 C                     0.71074856     1.25212608     0.00000000
 C                    -0.67044053     1.27415143     0.00000000
 H                    -1.29869210    -2.17946235     0.00000000
 H                     1.22851910    -2.21976360     0.00000000
 H                     2.50436689    -0.03994437     0.00000000
 H                     1.29869187     2.17946273     0.00000000
 H                    -1.22851937     2.21976321     0.00000000
 H                    -2.50436664     0.03994438     0.00000000

 ==============================================================================
                                internuclear distances
 ------------------------------------------------------------------------------
       center one      |      center two      | atomic units |  angstroms
 ------------------------------------------------------------------------------
    2 C                |   1 C                |     2.73823  |     1.44901
    3 C                |   2 C                |     2.61040  |     1.38136
    4 C                |   3 C                |     2.73826  |     1.44903
    5 C                |   4 C                |     2.73823  |     1.44901
    6 C                |   1 C                |     2.73827  |     1.44903
    6 C                |   5 C                |     2.61040  |     1.38136
    7 H                |   2 C                |     2.07494  |     1.09801
    8 H                |   3 C                |     2.07495  |     1.09801
    9 H                |   4 C                |     2.08676  |     1.10426
   10 H                |   5 C                |     2.07494  |     1.09801
   11 H                |   6 C                |     2.07494  |     1.09801
   12 H                |   1 C                |     2.08676  |     1.10426
 ------------------------------------------------------------------------------
                         number of included internuclear distances:         12
 ==============================================================================



 ==============================================================================
                                 internuclear angles
 ------------------------------------------------------------------------------
        center 1       |       center 2       |       center 3       |  degrees
 ------------------------------------------------------------------------------
    2 C                |   1 C                |   6 C                |   121.34
    2 C                |   1 C                |  12 H                |   119.33
    6 C                |   1 C                |  12 H                |   119.33
    1 C                |   2 C                |   3 C                |   119.33
    1 C                |   2 C                |   7 H                |   119.21
    3 C                |   2 C                |   7 H                |   121.46
    2 C                |   3 C                |   4 C                |   119.33
    2 C                |   3 C                |   8 H                |   121.46
    4 C                |   3 C                |   8 H                |   119.21
    3 C                |   4 C                |   5 C                |   121.34
    3 C                |   4 C                |   9 H                |   119.33
    5 C                |   4 C                |   9 H                |   119.33
    4 C                |   5 C                |   6 C                |   119.33
    4 C                |   5 C                |  10 H                |   119.21
    6 C                |   5 C                |  10 H                |   121.46
    1 C                |   6 C                |   5 C                |   119.33
    1 C                |   6 C                |  11 H                |   119.21
    5 C                |   6 C                |  11 H                |   121.46
 ------------------------------------------------------------------------------
                            number of included internuclear angles:         18
 ==============================================================================




                                 NWChem DFT Module
                                 -----------------


                     benzene_gamma2_ma-zora-def2-svp_pbe0_dft


                      Basis "ao basis" -> "ao basis" (spherical)
                      -----
  C (Carbon)
  ----------
            Exponent  Coefficients 
       -------------- ---------------------------------------------------------
  1 S  1.23840169E+03  0.005727
  1 S  1.86290050E+02  0.042136
  1 S  4.22511764E+01  0.186644
  1 S  1.16765579E+01  0.467826
  1 S  3.59305065E+00  0.442123

  2 S  4.02451470E-01  1.000000

  3 S  1.30901830E-01 -1.000000

  4 P  9.46809706E+00  0.057012
  4 P  2.01035451E+00  0.313048
  4 P  5.47710050E-01  0.760519

  5 P  1.52686140E-01  1.000000

  6 D  8.00000000E-01  1.000000

  H (Hydrogen)
  ------------
            Exponent  Coefficients 
       -------------- ---------------------------------------------------------
  1 S  1.30107010E+01  0.039111
  1 S  1.96225720E+00  0.285581
  1 S  4.44537960E-01  0.769000

  2 S  1.21949620E-01  1.000000

  3 P  8.00000000E-01  1.000000



 Summary of "ao basis" -> "ao basis" (spherical)
 ------------------------------------------------------------------------------
       Tag                 Description            Shells   Functions and Types
 ---------------- ------------------------------  ------  ---------------------
 C                       user specified              6       14   3s2p1d
 H                      ma-zora-def2-svp             3        5   2s1p




 Summary of "ao basis" -> "ao basis" (spherical)
 ------------------------------------------------------------------------------
       Tag                 Description            Shells   Functions and Types
 ---------------- ------------------------------  ------  ---------------------
 C                       user specified              6       14   3s2p1d
 H                      ma-zora-def2-svp             3        5   2s1p



int_init: setting std/high accuracies to  1.0D-14  1.0D-28
  Caching 1-el integrals 

            General Information
            -------------------
          SCF calculation type: DFT
          Wavefunction type:  spin polarized.
          No. of atoms     :    12
          No. of electrons :    41
           Alpha electrons :    21
            Beta electrons :    20
          Charge           :     1
          Spin multiplicity:     2
          Use of symmetry is: off; symmetry adaption is: off
          Maximum number of iterations: 200
          This is a Direct SCF calculation.
          AO basis - number of functions:   114
                     number of shells:    54
          Convergence on energy requested:  5.00D-09
          Convergence on density requested:  1.00D-05
          Convergence on gradient requested:  5.00D-04

              XC Information
              --------------
                         PBE0 Method XC Functional
                     Hartree-Fock (Exact) Exchange  0.250          
          PerdewBurkeErnzerhof Exchange Functional  0.750          
            Perdew 1991 LDA Correlation Functional  1.000 local    
           PerdewBurkeErnz. Correlation Functional  1.000 non-local

             Grid Information
             ----------------
          Grid used for XC integration:  xfine     
          Radial quadrature: Mura-Knowles        
          Angular quadrature: Lebedev. 
          Tag              B.-S. Rad. Rad. Pts. Rad. Cut. Ang. Pts.
          ---              ---------- --------- --------- ---------
          C                   0.70      100          11.0      1454
          H                   0.35      100          13.0      1202
          Grid pruning is: on 
          Number of quadrature shells:  1200
          Spatial weights used:  Erf1

          Convergence Information
          -----------------------
          Convergence aids based upon iterative change in 
          total energy or number of iterations. 
          Levelshifting, if invoked, occurs when the 
          HOMO/LUMO gap drops below (HL_TOL):  1.00D-02
          DIIS, if invoked, will attempt to extrapolate 
          using up to (NFOCK): 10 stored Fock matrices.

                    Damping( 0%)  Levelshifting(0.0)       DIIS
                  --------------- ------------------- ---------------
          dE  on:    start             N/A                start   
          dE off:    2 iters           N/A              200 iters 


      Screening Tolerance Information
      -------------------------------
          Density screening/tol_rho:  1.00D-13
          AO Gaussian exp screening on grid/accAOfunc:  19
          CD Gaussian exp screening on grid/accCDfunc:  20
          XC Gaussian exp screening on grid/accXCfunc:  20
          Schwarz screening/accCoul:  1.00D-14

          Performing ZORA calculations
          ----------------------------


      Superposition of Atomic Density Guess
      -------------------------------------

 Sum of atomic energies:        -228.72275390

 Read atomic ZORA corrections from ./benzene_gamma2_ma-zora-def2-svp_pbe0_dft.zora_sf

 dft_zora_read: failed to open./benzene_gamma2_ma-zora-def2-svp_pbe0_dft.zora_sf
       Generating atomic ZORA corrections
       ----------------------------------

 In dft_scf:: zora:Knucl= F

 Grid_pts file          = ./scratch/benzene_gamma2_ma-zora-def2-svp_pbe0_dft.gridpts.00
 Record size in doubles =  12289        No. of grid_pts per rec  =   3070
 Max. records in memory =     38        Max. recs in file   =  59602982

 Grid integrated density:      41.999999883756
 Requested integration accuracy:   0.10E-07

 Wrote atomic ZORA corrections to ./benzene_gamma2_ma-zora-def2-svp_pbe0_dft.zora_sf


      Superposition of Atomic Density Guess
      -------------------------------------

 Sum of atomic energies:        -228.72275390

 Renormalizing density from      42.00 to     41

      Non-variational initial energy
      ------------------------------

 Total energy =    -228.642283
 1-e energy   =    -683.559484
 2-e energy   =     255.652140
 HOMO         =      -0.570998
 LUMO         =      -0.310362

   Time after variat. SCF:      7.7
   Time prior to 1st pass:      7.7

           Memory utilization after 1st SCF pass: 
           Heap Space remaining (MW):       97.91            97914272
          Stack Space remaining (MW):      163.81           163812596

   convergence    iter        energy       DeltaE   RMS-Dens  Diis-err    time
 ---------------- ----- ----------------- --------- --------- ---------  ------
 d= 0,ls=0.0,diis     1   -231.5425223383 -4.31D+02  3.63D-03  1.37D-01     9.2
                                                     3.68D-03  1.30D-01
 d= 0,ls=0.0,diis     2   -231.5770985464 -3.46D-02  1.89D-03  5.59D-02    10.7
                                                     1.86D-03  5.69D-02
 d= 0,ls=0.0,diis     3   -231.6030996893 -2.60D-02  5.98D-04  7.87D-03    12.2
                                                     4.48D-04  6.02D-03
 d= 0,ls=0.0,diis     4   -231.6065813661 -3.48D-03  1.30D-04  4.41D-04    13.7
                                                     1.63D-04  6.16D-04
 d= 0,ls=0.0,diis     5   -231.6068637071 -2.82D-04  5.60D-05  1.78D-05    15.2
                                                     4.52D-05  8.39D-06
 d= 0,ls=0.0,diis     6   -231.6068860347 -2.23D-05  1.83D-05  8.92D-07    16.7
                                                     2.21D-05  2.34D-06
 d= 0,ls=0.0,diis     7   -231.6068887854 -2.75D-06  4.48D-06  6.26D-08    18.2
                                                     4.99D-06  1.07D-07
 d= 0,ls=0.0,diis     8   -231.6068889103 -1.25D-07  5.77D-07  1.82D-09    19.7
                                                     6.14D-07  1.82D-09
 d= 0,ls=0.0,diis     9   -231.6068889129 -2.59D-09  2.05D-07  1.48D-10    21.2
                                                     1.83D-07  1.08D-10
(nogshift,skip_gshiftAOev,done_Fji)=( 1,F,F)


         Total DFT energy =     -231.606888912899
      One electron energy =     -695.965171628845
           Coulomb energy =      299.234888112019
          Exchange energy =      -32.813092739208
       Correlation energy =       -1.328573960325
 Nuclear repulsion energy =      199.265061303461

       Scaling correction =        0.054208610776

 Numeric. integr. density =       40.999999933282

     Total iterative time =     13.6s



                    DFT Final Alpha Molecular Orbital Analysis
                    ------------------------------------------

 Vector    1  Occ=1.000000D+00  E=-1.050667D+01
              MO Center= -1.9D-01,  3.0D-03, -4.1D-15, r^2= 2.0D+00
   Bfn.  Coefficient  Atom+Function         Bfn.  Coefficient  Atom+Function  
  ----- ------------  ---------------      ----- ------------  ---------------
     1      0.742988   1 C  s                43     -0.650338   4 C  s         
     2      0.039193   1 C  s                44     -0.034499   4 C  s         
     3     -0.026519   1 C  s         

 Vector    2  Occ=1.000000D+00  E=-1.050662D+01
              MO Center=  1.9D-01, -3.0D-03, -2.5D-15, r^2= 2.0D+00
   Bfn.  Coefficient  Atom+Function         Bfn.  Coefficient  Atom+Function  
  ----- ------------  ---------------      ----- ------------  ---------------
    43      0.743093   4 C  s                 1      0.650458   1 C  s         
    44      0.037747   4 C  s                 2      0.032847   1 C  s         
    45     -0.031281   4 C  s                 3     -0.028016   1 C  s         

 Vector    3  Occ=1.000000D+00  E=-1.046922D+01
              MO Center= -8.1D-03,  4.2D-03, -3.9D-15, r^2= 2.1D+00
   Bfn.  Coefficient  Atom+Function         Bfn.  Coefficient  Atom+Function  
  ----- ------------  ---------------      ----- ------------  ---------------
    71     -0.505243   6 C  s                29      0.497919   3 C  s         
    15      0.488395   2 C  s                57     -0.484037   5 C  s         

 Vector    4  Occ=1.000000D+00  E=-1.046917D+01
              MO Center= -1.1D-02, -3.9D-03, -3.6D-15, r^2= 2.1D+00
   Bfn.  Coefficient  Atom+Function         Bfn.  Coefficient  Atom+Function  
  ----- ------------  ---------------      ----- ------------  ---------------
    71      0.504411   6 C  s                29      0.498267   3 C  s         
    15      0.491371   2 C  s                57      0.481842   5 C  s         

 Vector    5  Occ=1.000000D+00  E=-1.046887D+01
              MO Center=  1.1D-02, -3.3D-03,  1.6D-15, r^2= 2.1D+00
   Bfn.  Coefficient  Atom+Function         Bfn.  Coefficient  Atom+Function  
  ----- ------------  ---------------      ----- ------------  ---------------
    57     -0.504292   5 C  s                15      0.497767   2 C  s         
    29     -0.490258   3 C  s                71      0.481078   6 C  s         
    58     -0.028594   5 C  s                16      0.028305   2 C  s         
    30     -0.027915   3 C  s                72      0.027477   6 C  s         

 Vector    6  Occ=1.000000D+00  E=-1.046881D+01
              MO Center=  8.2D-03,  3.0D-03,  2.8D-15, r^2= 2.1D+00
   Bfn.  Coefficient  Atom+Function         Bfn.  Coefficient  Atom+Function  
  ----- ------------  ---------------      ----- ------------  ---------------
    57      0.504305   5 C  s                15      0.497344   2 C  s         
    29     -0.488418   3 C  s                71     -0.483696   6 C  s         
    17     -0.028652   2 C  s                59     -0.028763   5 C  s         
    31      0.028268   3 C  s                73      0.028264   6 C  s         
    58      0.028061   5 C  s                16      0.027711   2 C  s         

 Vector    7  Occ=1.000000D+00  E=-1.102770D+00
              MO Center= -3.1D-05,  4.8D-07, -1.9D-12, r^2= 2.1D+00
   Bfn.  Coefficient  Atom+Function         Bfn.  Coefficient  Atom+Function  
  ----- ------------  ---------------      ----- ------------  ---------------
     2      0.244641   1 C  s                44      0.244629   4 C  s         
    16      0.224256   2 C  s                30      0.224255   3 C  s         
    58      0.224251   5 C  s                72      0.224261   6 C  s         
     1     -0.123258   1 C  s                43     -0.123252   4 C  s         
    15     -0.116149   2 C  s                29     -0.116148   3 C  s         

 Vector    8  Occ=1.000000D+00  E=-9.939147D-01
              MO Center=  1.6D-05, -2.6D-07, -1.8D-12, r^2= 2.8D+00
   Bfn.  Coefficient  Atom+Function         Bfn.  Coefficient  Atom+Function  
  ----- ------------  ---------------      ----- ------------  ---------------
     2      0.354569   1 C  s                44     -0.354572   4 C  s         
     1     -0.172369   1 C  s                43      0.172371   4 C  s         
    16      0.156511   2 C  s                30     -0.156504   3 C  s         
    58     -0.156520   5 C  s                72      0.156495   6 C  s         
     3      0.112882   1 C  s                45     -0.112883   4 C  s         

 Vector    9  Occ=1.000000D+00  E=-9.910815D-01
              MO Center= -1.3D-05,  2.2D-07, -1.9D-12, r^2= 2.8D+00
   Bfn.  Coefficient  Atom+Function         Bfn.  Coefficient  Atom+Function  
  ----- ------------  ---------------      ----- ------------  ---------------
    16      0.291678   2 C  s                30      0.291689   3 C  s         
    58     -0.291673   5 C  s                72     -0.291694   6 C  s         
    15     -0.145963   2 C  s                29     -0.145968   3 C  s         
    57      0.145961   5 C  s                71      0.145970   6 C  s         
     5     -0.117640   1 C  py               47     -0.117635   4 C  py        

 Vector   10  Occ=1.000000D+00  E=-8.490803D-01
              MO Center= -4.2D-07, -4.9D-10, -1.3D-12, r^2= 3.6D+00
   Bfn.  Coefficient  Atom+Function         Bfn.  Coefficient  Atom+Function  
  ----- ------------  ---------------      ----- ------------  ---------------
     2      0.287820   1 C  s                44      0.287822   4 C  s         
    16     -0.149247   2 C  s                30     -0.149294   3 C  s         
    32      0.148664   3 C  px               58     -0.149242   5 C  s         
    72     -0.149299   6 C  s                74     -0.148662   6 C  px        
    18     -0.145424   2 C  px               60      0.145426   5 C  px        

 Vector   11  Occ=1.000000D+00  E=-8.380227D-01
              MO Center= -4.3D-06,  7.7D-08, -8.9D-13, r^2= 3.6D+00
   Bfn.  Coefficient  Atom+Function         Bfn.  Coefficient  Atom+Function  
  ----- ------------  ---------------      ----- ------------  ---------------
    16     -0.237040   2 C  s                30      0.237016   3 C  s         
    58     -0.237045   5 C  s                72      0.237011   6 C  s         
     5      0.222316   1 C  py               47     -0.222313   4 C  py        
    18      0.119009   2 C  px               32      0.119539   3 C  px        
    60     -0.119003   5 C  px               74     -0.119546   6 C  px        

 Vector   12  Occ=1.000000D+00  E=-7.552837D-01
              MO Center= -3.4D-05,  5.4D-07, -8.1D-13, r^2= 4.2D+00
   Bfn.  Coefficient  Atom+Function         Bfn.  Coefficient  Atom+Function  
  ----- ------------  ---------------      ----- ------------  ---------------
     4      0.207455   1 C  px               46     -0.207445   4 C  px        
    33      0.177650   3 C  py               75     -0.177656   6 C  py        
    19      0.174896   2 C  py               61     -0.174890   5 C  py        
    85     -0.130275   7 H  s                90     -0.130270   8 H  s         
   100     -0.130272  10 H  s               105     -0.130273  11 H  s         

 Vector   13  Occ=1.000000D+00  E=-6.941508D-01
              MO Center=  4.3D-06, -6.6D-08,  6.0D-14, r^2= 2.8D+00
   Bfn.  Coefficient  Atom+Function         Bfn.  Coefficient  Atom+Function  
  ----- ------------  ---------------      ----- ------------  ---------------
     5      0.286165   1 C  py               47      0.286163   4 C  py        
    32     -0.240334   3 C  px               74     -0.240333   6 C  px        
    18      0.235780   2 C  px               60      0.235782   5 C  px        
    19     -0.146450   2 C  py               61     -0.146446   5 C  py        
    33     -0.138852   3 C  py               75     -0.138856   6 C  py        

 Vector   14  Occ=1.000000D+00  E=-6.920142D-01
              MO Center= -1.8D-05,  2.9D-07, -1.4D-12, r^2= 5.2D+00
   Bfn.  Coefficient  Atom+Function         Bfn.  Coefficient  Atom+Function  
  ----- ------------  ---------------      ----- ------------  ---------------
    95      0.198049   9 H  s               110     -0.198052  12 H  s         
     4      0.191464   1 C  px               46      0.191460   4 C  px        
    16      0.175948   2 C  s                30     -0.175945   3 C  s         
    58     -0.175950   5 C  s                72      0.175944   6 C  s         
     3     -0.170102   1 C  s                45      0.170102   4 C  s         

 Vector   15  Occ=1.000000D+00  E=-6.597751D-01
              MO Center= -2.0D-05,  3.5D-07,  6.7D-13, r^2= 4.2D+00
   Bfn.  Coefficient  Atom+Function         Bfn.  Coefficient  Atom+Function  
  ----- ------------  ---------------      ----- ------------  ---------------
    33      0.214471   3 C  py               75      0.214477   6 C  py        
    19      0.208948   2 C  py               61      0.208942   5 C  py        
    18      0.177694   2 C  px               60      0.177694   5 C  px        
    85     -0.176605   7 H  s                90     -0.176565   8 H  s         
   100      0.176600  10 H  s               105      0.176569  11 H  s         

 Vector   16  Occ=1.000000D+00  E=-6.543211D-01
              MO Center=  2.5D-05, -4.4D-07,  1.5D-14, r^2= 4.1D+00
   Bfn.  Coefficient  Atom+Function         Bfn.  Coefficient  Atom+Function  
  ----- ------------  ---------------      ----- ------------  ---------------
     4      0.292716   1 C  px               46      0.292717   4 C  px        
    33     -0.182055   3 C  py               75     -0.182049   6 C  py        
    19      0.180983   2 C  py               61      0.180988   5 C  py        
    95      0.169289   9 H  s               110     -0.169289  12 H  s         
     7      0.140464   1 C  px               49      0.140464   4 C  px        

 Vector   17  Occ=1.000000D+00  E=-6.189723D-01
              MO Center= -3.4D-05,  5.4D-07,  5.5D-12, r^2= 2.8D+00
   Bfn.  Coefficient  Atom+Function         Bfn.  Coefficient  Atom+Function  
  ----- ------------  ---------------      ----- ------------  ---------------
     6      0.265380   1 C  pz               48      0.265368   4 C  pz        
    20      0.219127   2 C  pz               34      0.219130   3 C  pz        
    62      0.219121   5 C  pz               76      0.219135   6 C  pz        
     9      0.146120   1 C  pz               51      0.146112   4 C  pz        
    23      0.107159   2 C  pz               37      0.107165   3 C  pz        

 Vector   18  Occ=1.000000D+00  E=-5.873333D-01
              MO Center=  4.1D-05, -6.7D-07, -4.4D-13, r^2= 4.1D+00
   Bfn.  Coefficient  Atom+Function         Bfn.  Coefficient  Atom+Function  
  ----- ------------  ---------------      ----- ------------  ---------------
    18      0.258950   2 C  px               32     -0.259094   3 C  px        
    60     -0.258950   5 C  px               74      0.259094   6 C  px        
     4     -0.235094   1 C  px               46      0.235104   4 C  px        
    95      0.204653   9 H  s               110      0.204645  12 H  s         
     7     -0.114217   1 C  px               49      0.114221   4 C  px        

 Vector   19  Occ=1.000000D+00  E=-5.772578D-01
              MO Center=  3.1D-05, -4.7D-07, -3.7D-13, r^2= 4.3D+00
   Bfn.  Coefficient  Atom+Function         Bfn.  Coefficient  Atom+Function  
  ----- ------------  ---------------      ----- ------------  ---------------
     5      0.264390   1 C  py               47     -0.264397   4 C  py        
    19     -0.236994   2 C  py               33      0.236994   3 C  py        
    61      0.237002   5 C  py               75     -0.236985   6 C  py        
    85      0.185920   7 H  s                90     -0.185895   8 H  s         
   100      0.185925  10 H  s               105     -0.185891  11 H  s         

 Vector   20  Occ=1.000000D+00  E=-5.172185D-01
              MO Center=  2.8D-05, -4.6D-07,  1.7D-12, r^2= 3.0D+00
   Bfn.  Coefficient  Atom+Function         Bfn.  Coefficient  Atom+Function  
  ----- ------------  ---------------      ----- ------------  ---------------
     6      0.390123   1 C  pz               48     -0.390127   4 C  pz        
     9      0.253087   1 C  pz               51     -0.253089   4 C  pz        
    20      0.152969   2 C  pz               34     -0.153015   3 C  pz        
    62     -0.152977   5 C  pz               76      0.153007   6 C  pz        
    23      0.093592   2 C  pz               37     -0.093623   3 C  pz        

 Vector   21  Occ=1.000000D+00  E=-4.961731D-01
              MO Center= -6.6D-06,  1.2D-07,  4.4D-12, r^2= 3.1D+00
   Bfn.  Coefficient  Atom+Function         Bfn.  Coefficient  Atom+Function  
  ----- ------------  ---------------      ----- ------------  ---------------
    20      0.307393   2 C  pz               34      0.307385   3 C  pz        
    62     -0.307389   5 C  pz               76     -0.307389   6 C  pz        
    23      0.197526   2 C  pz               37      0.197523   3 C  pz        
    65     -0.197523   5 C  pz               79     -0.197526   6 C  pz        

 Vector   22  Occ=0.000000D+00  E=-2.686501D-01
              MO Center= -1.0D-05,  1.6D-07, -2.7D-12, r^2= 3.4D+00
   Bfn.  Coefficient  Atom+Function         Bfn.  Coefficient  Atom+Function  
  ----- ------------  ---------------      ----- ------------  ---------------
     9      0.423678   1 C  pz               51      0.423674   4 C  pz        
     6      0.384944   1 C  pz               48      0.384941   4 C  pz        
    23     -0.226894   2 C  pz               37     -0.226975   3 C  pz        
    65     -0.226886   5 C  pz               79     -0.226983   6 C  pz        
    20     -0.209557   2 C  pz               34     -0.209631   3 C  pz        

 Vector   23  Occ=0.000000D+00  E=-2.268300D-01
              MO Center=  6.4D-06, -1.0D-07,  3.0D-12, r^2= 3.6D+00
   Bfn.  Coefficient  Atom+Function         Bfn.  Coefficient  Atom+Function  
  ----- ------------  ---------------      ----- ------------  ---------------
    23      0.424270   2 C  pz               37     -0.424210   3 C  pz        
    65      0.424273   5 C  pz               79     -0.424208   6 C  pz        
    20      0.327384   2 C  pz               34     -0.327335   3 C  pz        
    62      0.327386   5 C  pz               76     -0.327333   6 C  pz        
    11     -0.035902   1 C  d -1             53      0.035902   4 C  d -1      

 Vector   24  Occ=0.000000D+00  E=-1.103220D-01
              MO Center= -7.7D-05,  1.2D-06,  9.6D-13, r^2= 9.5D+00
   Bfn.  Coefficient  Atom+Function         Bfn.  Coefficient  Atom+Function  
  ----- ------------  ---------------      ----- ------------  ---------------
    96      0.795408   9 H  s               111      0.795450  12 H  s         
    86      0.655385   7 H  s                91      0.655397   8 H  s         
   101      0.655366  10 H  s               106      0.655416  11 H  s         
     3     -0.569085   1 C  s                45     -0.569059   4 C  s         
    17     -0.405926   2 C  s                31     -0.405945   3 C  s         

 Vector   25  Occ=0.000000D+00  E=-9.021888D-02
              MO Center=  1.6D-05, -2.5D-07,  3.2D-12, r^2= 3.7D+00
   Bfn.  Coefficient  Atom+Function         Bfn.  Coefficient  Atom+Function  
  ----- ------------  ---------------      ----- ------------  ---------------
    23      0.530709   2 C  pz               37     -0.530698   3 C  pz        
    65     -0.530715   5 C  pz               79      0.530693   6 C  pz        
     9     -0.463974   1 C  pz               51      0.463984   4 C  pz        
    20      0.314539   2 C  pz               34     -0.314536   3 C  pz        
    62     -0.314542   5 C  pz               76      0.314533   6 C  pz        

 Vector   26  Occ=0.000000D+00  E=-6.477296D-02
              MO Center=  4.6D-05, -6.9D-07, -2.3D-13, r^2= 1.0D+01
   Bfn.  Coefficient  Atom+Function         Bfn.  Coefficient  Atom+Function  
  ----- ------------  ---------------      ----- ------------  ---------------
    96      1.233829   9 H  s               111     -1.233827  12 H  s         
     3      0.800500   1 C  s                45     -0.800489   4 C  s         
     7     -0.529068   1 C  px               49     -0.529072   4 C  px        
    86     -0.519508   7 H  s                91      0.519714   8 H  s         
   101      0.519549  10 H  s               106     -0.519673  11 H  s         

 Vector   27  Occ=0.000000D+00  E=-5.961989D-02
              MO Center= -3.7D-05,  4.5D-07,  7.6D-13, r^2= 1.0D+01
   Bfn.  Coefficient  Atom+Function         Bfn.  Coefficient  Atom+Function  
  ----- ------------  ---------------      ----- ------------  ---------------
    86      1.008736   7 H  s                91      1.008652   8 H  s         
   101     -1.008707  10 H  s               106     -1.008681  11 H  s         
    17     -0.599582   2 C  s                31     -0.599533   3 C  s         
    59      0.599551   5 C  s                73      0.599563   6 C  s         
    36      0.387443   3 C  py               78      0.387454   6 C  py        

 Vector   28  Occ=0.000000D+00  E=-3.846835D-02
              MO Center= -5.8D-05,  1.1D-06,  3.0D-12, r^2= 8.8D+00
   Bfn.  Coefficient  Atom+Function         Bfn.  Coefficient  Atom+Function  
  ----- ------------  ---------------      ----- ------------  ---------------
     3      1.977893   1 C  s                45      1.977847   4 C  s         
    17     -1.050090   2 C  s                31     -1.050509   3 C  s         
    59     -1.050055   5 C  s                73     -1.050544   6 C  s         
    96     -1.035665   9 H  s               111     -1.035680  12 H  s         
    86      0.613732   7 H  s                91      0.613928   8 H  s         

 Vector   29  Occ=0.000000D+00  E=-2.399618D-02
              MO Center=  2.1D-05, -4.2D-07,  7.7D-13, r^2= 9.9D+00
   Bfn.  Coefficient  Atom+Function         Bfn.  Coefficient  Atom+Function  
  ----- ------------  ---------------      ----- ------------  ---------------
    17      1.726994   2 C  s                31     -1.726702   3 C  s         
    59      1.726988   5 C  s                73     -1.726707   6 C  s         
    86     -1.070875   7 H  s                91      1.070696   8 H  s         
   101     -1.070897  10 H  s               106      1.070674  11 H  s         
     8      0.515317   1 C  py               50     -0.515293   4 C  py        

 Vector   30  Occ=0.000000D+00  E=-4.451410D-03
              MO Center=  7.9D-05, -1.3D-06, -5.6D-13, r^2= 1.1D+01
   Bfn.  Coefficient  Atom+Function         Bfn.  Coefficient  Atom+Function  
  ----- ------------  ---------------      ----- ------------  ---------------
    86      1.034731   7 H  s                91     -1.034756   8 H  s         
   101     -1.034763  10 H  s               106      1.034725  11 H  s         
    96      0.927785   9 H  s               111     -0.927735  12 H  s         
     3      0.694385   1 C  s                45     -0.694487   4 C  s         
    17     -0.480717   2 C  s                31      0.480879   3 C  s         

 Vector   31  Occ=0.000000D+00  E= 5.163796D-02
              MO Center= -3.9D-05,  7.2D-07,  8.9D-14, r^2= 6.4D+00
   Bfn.  Coefficient  Atom+Function         Bfn.  Coefficient  Atom+Function  
  ----- ------------  ---------------      ----- ------------  ---------------
     3      1.923326   1 C  s                45      1.923170   4 C  s         
     7      1.343620   1 C  px               49     -1.343585   4 C  px        
    22     -0.927739   2 C  py               64      0.927674   5 C  py        
    36     -0.921577   3 C  py               78      0.921640   6 C  py        
    96      0.911267   9 H  s               111      0.911256  12 H  s         

 Vector   32  Occ=0.000000D+00  E= 6.294680D-02
              MO Center= -4.4D-05,  5.7D-07,  2.8D-13, r^2= 4.9D+00
   Bfn.  Coefficient  Atom+Function         Bfn.  Coefficient  Atom+Function  
  ----- ------------  ---------------      ----- ------------  ---------------
     8      1.829088   1 C  py               50      1.828999   4 C  py        
    17      1.798001   2 C  s                31      1.797691   3 C  s         
    59     -1.797853   5 C  s                73     -1.797838   6 C  s         
    35      0.707276   3 C  px               77      0.707220   6 C  px        
    21     -0.687888   2 C  px               63     -0.687946   5 C  px        

 Vector   33  Occ=0.000000D+00  E= 8.368556D-02
              MO Center=  4.3D-05, -9.5D-07, -7.3D-13, r^2= 6.0D+00
   Bfn.  Coefficient  Atom+Function         Bfn.  Coefficient  Atom+Function  
  ----- ------------  ---------------      ----- ------------  ---------------
    17      2.446463   2 C  s                31     -2.446327   3 C  s         
    59      2.446597   5 C  s                73     -2.446192   6 C  s         
    21      1.090009   2 C  px               63     -1.089954   5 C  px        
     8      1.061798   1 C  py               35      1.059227   3 C  px        
    50     -1.061933   4 C  py               77     -1.059281   6 C  px        

 Vector   34  Occ=0.000000D+00  E= 8.634701D-02
              MO Center=  4.1D-05, -3.6D-07, -8.2D-13, r^2= 5.1D+00
   Bfn.  Coefficient  Atom+Function         Bfn.  Coefficient  Atom+Function  
  ----- ------------  ---------------      ----- ------------  ---------------
     3      2.565924   1 C  s                45     -2.566049   4 C  s         
    35      1.419162   3 C  px               77      1.419145   6 C  px        
    21      1.385983   2 C  px               63      1.386000   5 C  px        
    22     -1.069274   2 C  py               64     -1.069326   5 C  py        
    36      1.024368   3 C  py               78      1.024315   6 C  py        

 Vector   35  Occ=0.000000D+00  E= 1.625932D-01
              MO Center= -2.4D-05,  3.8D-07,  8.3D-12, r^2= 3.6D+00
   Bfn.  Coefficient  Atom+Function         Bfn.  Coefficient  Atom+Function  
  ----- ------------  ---------------      ----- ------------  ---------------
    17      0.791955   2 C  s                31      0.791743   3 C  s         
    59      0.791912   5 C  s                73      0.791785   6 C  s         
     2     -0.700530   1 C  s                44     -0.700504   4 C  s         
    16     -0.635401   2 C  s                30     -0.635410   3 C  s         
    58     -0.635389   5 C  s                72     -0.635422   6 C  s         

 Vector   36  Occ=0.000000D+00  E= 2.194838D-01
              MO Center= -7.1D-06,  1.1D-07,  7.0D-13, r^2= 5.7D+00
   Bfn.  Coefficient  Atom+Function         Bfn.  Coefficient  Atom+Function  
  ----- ------------  ---------------      ----- ------------  ---------------
     8      0.499681   1 C  py               50      0.499695   4 C  py        
    35     -0.423039   3 C  px               77     -0.423038   6 C  px        
    21      0.417187   2 C  px               63      0.417189   5 C  px        
     5     -0.293732   1 C  py               47     -0.293722   4 C  py        
    32      0.264506   3 C  px               74      0.264509   6 C  px        

 Vector   37  Occ=0.000000D+00  E= 2.325066D-01
              MO Center= -2.6D-05,  3.9D-07,  7.0D-11, r^2= 4.7D+00
   Bfn.  Coefficient  Atom+Function         Bfn.  Coefficient  Atom+Function  
  ----- ------------  ---------------      ----- ------------  ---------------
    17      2.020952   2 C  s                31     -2.021083   3 C  s         
    59     -2.020995   5 C  s                73      2.021040   6 C  s         
     3      0.957402   1 C  s                45     -0.957367   4 C  s         
     2     -0.880562   1 C  s                44      0.880575   4 C  s         
    21      0.840603   2 C  px               63      0.840611   5 C  px        

 Vector   38  Occ=0.000000D+00  E= 2.407782D-01
              MO Center= -1.9D-05,  3.2D-07,  5.6D-12, r^2= 4.8D+00
   Bfn.  Coefficient  Atom+Function         Bfn.  Coefficient  Atom+Function  
  ----- ------------  ---------------      ----- ------------  ---------------
    17      1.499427   2 C  s                31      1.498323   3 C  s         
    59     -1.499367   5 C  s                73     -1.498383   6 C  s         
    16     -0.721818   2 C  s                30     -0.721808   3 C  s         
    58      0.721809   5 C  s                72      0.721817   6 C  s         
     8      0.509250   1 C  py               50      0.509248   4 C  py        

 Vector   39  Occ=0.000000D+00  E= 2.428394D-01
              MO Center= -2.7D-05,  4.5D-07, -7.4D-12, r^2= 6.2D+00
   Bfn.  Coefficient  Atom+Function         Bfn.  Coefficient  Atom+Function  
  ----- ------------  ---------------      ----- ------------  ---------------
    17      5.988278   2 C  s                31     -5.988176   3 C  s         
    59     -5.988283   5 C  s                73      5.988173   6 C  s         
     3     -5.102967   1 C  s                45      5.102974   4 C  s         
     7     -2.686709   1 C  px               49     -2.686711   4 C  px        
    36     -2.316349   3 C  py               78     -2.316345   6 C  py        

 Vector   40  Occ=0.000000D+00  E= 2.598697D-01
              MO Center=  4.8D-05, -7.4D-07, -1.7D-10, r^2= 6.3D+00
   Bfn.  Coefficient  Atom+Function         Bfn.  Coefficient  Atom+Function  
  ----- ------------  ---------------      ----- ------------  ---------------
    95      0.462029   9 H  s               110      0.462009  12 H  s         
    85      0.398476   7 H  s                90      0.398487   8 H  s         
   100      0.398481  10 H  s               105      0.398482  11 H  s         
    96     -0.275567   9 H  s               111     -0.275560  12 H  s         
    86     -0.213362   7 H  s                91     -0.213358   8 H  s         

 Vector   41  Occ=0.000000D+00  E= 2.648401D-01
              MO Center= -4.6D-05,  7.3D-07,  1.5D-10, r^2= 3.8D+00
   Bfn.  Coefficient  Atom+Function         Bfn.  Coefficient  Atom+Function  
  ----- ------------  ---------------      ----- ------------  ---------------
     6      0.463105   1 C  pz               48      0.463081   4 C  pz        
     9     -0.401702   1 C  pz               51     -0.401675   4 C  pz        
    20      0.367713   2 C  pz               34      0.367723   3 C  pz        
    62      0.367702   5 C  pz               76      0.367734   6 C  pz        
    23     -0.233013   2 C  pz               37     -0.233039   3 C  pz        

 Vector   42  Occ=0.000000D+00  E= 3.009109D-01
              MO Center=  3.0D-05, -4.9D-07,  4.9D-11, r^2= 5.3D+00
   Bfn.  Coefficient  Atom+Function         Bfn.  Coefficient  Atom+Function  
  ----- ------------  ---------------      ----- ------------  ---------------
     3      1.501840   1 C  s                45      1.502016   4 C  s         
     7      0.789711   1 C  px               49     -0.789782   4 C  px        
    17     -0.729496   2 C  s                31     -0.730151   3 C  s         
    59     -0.729622   5 C  s                73     -0.730024   6 C  s         
    21     -0.428746   2 C  px               63      0.428773   5 C  px        

 Vector   43  Occ=0.000000D+00  E= 3.042608D-01
              MO Center=  1.4D-05, -2.3D-07,  1.7D-12, r^2= 5.0D+00
   Bfn.  Coefficient  Atom+Function         Bfn.  Coefficient  Atom+Function  
  ----- ------------  ---------------      ----- ------------  ---------------
     8      2.163907   1 C  py               50     -2.163954   4 C  py        
    35     -2.083368   3 C  px               77      2.083340   6 C  px        
    21     -2.032027   2 C  px               63      2.032054   5 C  px        
    22      1.618586   2 C  py               64     -1.618605   5 C  py        
    36     -1.552434   3 C  py               78      1.552415   6 C  py        

 Vector   44  Occ=0.000000D+00  E= 3.257326D-01
              MO Center=  2.1D-05, -3.1D-07,  5.9D-12, r^2= 5.2D+00
   Bfn.  Coefficient  Atom+Function         Bfn.  Coefficient  Atom+Function  
  ----- ------------  ---------------      ----- ------------  ---------------
    17      2.183734   2 C  s                31     -2.183795   3 C  s         
    59      2.183748   5 C  s                73     -2.183780   6 C  s         
    21      2.163735   2 C  px               35      2.173652   3 C  px        
    63     -2.163730   5 C  px               77     -2.173657   6 C  px        
     8     -1.909064   1 C  py               50      1.909069   4 C  py        

 Vector   45  Occ=0.000000D+00  E= 3.331090D-01
              MO Center=  2.5D-05, -4.1D-07, -6.2D-11, r^2= 4.5D+00
   Bfn.  Coefficient  Atom+Function         Bfn.  Coefficient  Atom+Function  
  ----- ------------  ---------------      ----- ------------  ---------------
     9      0.708058   1 C  pz               51     -0.708049   4 C  pz        
     6     -0.599241   1 C  pz               48      0.599247   4 C  pz        
    20     -0.254506   2 C  pz               34      0.254625   3 C  pz        
    62      0.254529   5 C  pz               76     -0.254602   6 C  pz        
    23      0.174657   2 C  pz               37     -0.174781   3 C  pz        

 Vector   46  Occ=0.000000D+00  E= 3.485526D-01
              MO Center= -2.8D-05,  4.6D-07,  8.8D-13, r^2= 4.5D+00
   Bfn.  Coefficient  Atom+Function         Bfn.  Coefficient  Atom+Function  
  ----- ------------  ---------------      ----- ------------  ---------------
    23     -0.499978   2 C  pz               37     -0.499975   3 C  pz        
    65      0.499948   5 C  pz               79      0.500006   6 C  pz        
    20      0.492681   2 C  pz               34      0.492632   3 C  pz        
    62     -0.492665   5 C  pz               76     -0.492649   6 C  pz        
    27     -0.035868   2 C  d  1             69     -0.035868   5 C  d  1      

 Vector   47  Occ=0.000000D+00  E= 3.941822D-01
              MO Center= -8.6D-06,  1.4D-07,  2.4D-11, r^2= 5.0D+00
   Bfn.  Coefficient  Atom+Function         Bfn.  Coefficient  Atom+Function  
  ----- ------------  ---------------      ----- ------------  ---------------
     9      0.992623   1 C  pz               51      0.992609   4 C  pz        
    23     -0.544586   2 C  pz               37     -0.544785   3 C  pz        
    65     -0.544547   5 C  pz               79     -0.544824   6 C  pz        
     6     -0.530317   1 C  pz               48     -0.530323   4 C  pz        
    20      0.331830   2 C  pz               34      0.331946   3 C  pz        

 Vector   48  Occ=0.000000D+00  E= 4.140037D-01
              MO Center=  2.8D-05, -4.5D-07,  1.8D-11, r^2= 4.9D+00
   Bfn.  Coefficient  Atom+Function         Bfn.  Coefficient  Atom+Function  
  ----- ------------  ---------------      ----- ------------  ---------------
    23      0.902332   2 C  pz               37     -0.902193   3 C  pz        
    65      0.902348   5 C  pz               79     -0.902177   6 C  pz        
    20     -0.516768   2 C  pz               34      0.516680   3 C  pz        
    62     -0.516785   5 C  pz               76      0.516663   6 C  pz        

 Vector   49  Occ=0.000000D+00  E= 4.495392D-01
              MO Center= -8.8D-05,  1.4D-06,  7.4D-13, r^2= 8.0D+00
   Bfn.  Coefficient  Atom+Function         Bfn.  Coefficient  Atom+Function  
  ----- ------------  ---------------      ----- ------------  ---------------
     3      2.426687   1 C  s                45     -2.426571   4 C  s         
    96      1.368349   9 H  s               111     -1.368444  12 H  s         
    22     -0.744296   2 C  py               36      0.744728   3 C  py        
    64     -0.744308   5 C  py               78      0.744716   6 C  py        
     2     -0.664254   1 C  s                44      0.664217   4 C  s         

 Vector   50  Occ=0.000000D+00  E= 4.537949D-01
              MO Center= -4.0D-05,  5.6D-07, -1.0D-11, r^2= 7.7D+00
   Bfn.  Coefficient  Atom+Function         Bfn.  Coefficient  Atom+Function  
  ----- ------------  ---------------      ----- ------------  ---------------
    17      1.794332   2 C  s                31      1.794689   3 C  s         
    59     -1.794227   5 C  s                73     -1.794795   6 C  s         
    86     -1.095161   7 H  s                91     -1.094974   8 H  s         
   101      1.095109  10 H  s               106      1.095025  11 H  s         
     8      0.929579   1 C  py               50      0.929509   4 C  py        

 Vector   51  Occ=0.000000D+00  E= 4.744624D-01
              MO Center= -2.7D-05,  5.3D-07,  1.7D-12, r^2= 7.7D+00
   Bfn.  Coefficient  Atom+Function         Bfn.  Coefficient  Atom+Function  
  ----- ------------  ---------------      ----- ------------  ---------------
     7      1.929870   1 C  px               49     -1.929780   4 C  px        
    96      1.484910   9 H  s               111      1.484904  12 H  s         
    36     -1.043720   3 C  py               78      1.043864   6 C  py        
    22     -1.037571   2 C  py               64      1.037428   5 C  py        
    86     -0.756378   7 H  s                91     -0.756611   8 H  s         

 Vector   52  Occ=0.000000D+00  E= 4.782422D-01
              MO Center=  2.9D-05, -4.4D-07, -3.8D-11, r^2= 5.6D+00
   Bfn.  Coefficient  Atom+Function         Bfn.  Coefficient  Atom+Function  
  ----- ------------  ---------------      ----- ------------  ---------------
    23     -1.210099   2 C  pz               37      1.210085   3 C  pz        
    65      1.210114   5 C  pz               79     -1.210070   6 C  pz        
     9      1.101878   1 C  pz               51     -1.101905   4 C  pz        
    20      0.439673   2 C  pz               34     -0.439659   3 C  pz        
    62     -0.439683   5 C  pz               76      0.439649   6 C  pz        

 Vector   53  Occ=0.000000D+00  E= 4.965049D-01
              MO Center=  3.5D-05, -6.2D-07, -8.4D-12, r^2= 8.2D+00
   Bfn.  Coefficient  Atom+Function         Bfn.  Coefficient  Atom+Function  
  ----- ------------  ---------------      ----- ------------  ---------------
    17      1.542978   2 C  s                31     -1.542538   3 C  s         
    59      1.543067   5 C  s                73     -1.542449   6 C  s         
    86     -1.397173   7 H  s                91      1.397020   8 H  s         
   101     -1.397206  10 H  s               106      1.396987  11 H  s         
    36      1.104603   3 C  py               78     -1.104610   6 C  py        

 Vector   54  Occ=0.000000D+00  E= 5.007902D-01
              MO Center= -6.8D-07,  1.7D-08, -6.4D-11, r^2= 5.4D+00
   Bfn.  Coefficient  Atom+Function         Bfn.  Coefficient  Atom+Function  
  ----- ------------  ---------------      ----- ------------  ---------------
     3      6.496736   1 C  s                45      6.496519   4 C  s         
    17     -3.043080   2 C  s                31     -3.044026   3 C  s         
    59     -3.042875   5 C  s                73     -3.044231   6 C  s         
     2     -1.264984   1 C  s                44     -1.264981   4 C  s         
    22     -1.219551   2 C  py               64      1.219460   5 C  py        

 Vector   55  Occ=0.000000D+00  E= 5.237087D-01
              MO Center=  6.9D-05, -1.1D-06, -4.7D-13, r^2= 6.1D+00
   Bfn.  Coefficient  Atom+Function         Bfn.  Coefficient  Atom+Function  
  ----- ------------  ---------------      ----- ------------  ---------------
     3      2.687739   1 C  s                45     -2.687947   4 C  s         
     7      2.083371   1 C  px               49      2.083492   4 C  px        
    36      2.041355   3 C  py               78      2.041272   6 C  py        
    22     -2.026361   2 C  py               64     -2.026445   5 C  py        
    17     -1.683265   2 C  s                31      1.683745   3 C  s         

 Vector   56  Occ=0.000000D+00  E= 5.328779D-01
              MO Center= -4.7D-05,  7.0D-07, -1.9D-11, r^2= 4.6D+00
   Bfn.  Coefficient  Atom+Function         Bfn.  Coefficient  Atom+Function  
  ----- ------------  ---------------      ----- ------------  ---------------
    17      5.562566   2 C  s                31     -5.562386   3 C  s         
    59      5.562459   5 C  s                73     -5.562492   6 C  s         
     8      2.232238   1 C  py               50     -2.232069   4 C  py        
    36     -1.318650   3 C  py               78      1.318729   6 C  py        
    22      1.294418   2 C  py               64     -1.294338   5 C  py        

 Vector   57  Occ=0.000000D+00  E= 5.453770D-01
              MO Center=  7.2D-06, -1.1D-07, -3.2D-12, r^2= 6.5D+00
   Bfn.  Coefficient  Atom+Function         Bfn.  Coefficient  Atom+Function  
  ----- ------------  ---------------      ----- ------------  ---------------
    17      1.297442   2 C  s                31      1.295129   3 C  s         
    59      1.297378   5 C  s                73      1.295193   6 C  s         
    86     -0.882744   7 H  s                91     -0.882636   8 H  s         
   101     -0.882740  10 H  s               106     -0.882641  11 H  s         
     7     -0.676945   1 C  px               49      0.676917   4 C  px        

 Vector   58  Occ=0.000000D+00  E= 5.603795D-01
              MO Center=  4.1D-05, -6.4D-07,  3.3D-13, r^2= 5.9D+00
   Bfn.  Coefficient  Atom+Function         Bfn.  Coefficient  Atom+Function  
  ----- ------------  ---------------      ----- ------------  ---------------
     8      2.919218   1 C  py               50      2.919264   4 C  py        
    17      2.067866   2 C  s                31      2.068293   3 C  s         
    59     -2.068204   5 C  s                73     -2.067955   6 C  s         
    22      1.249909   2 C  py               64      1.249949   5 C  py        
    36      1.218987   3 C  py               78      1.218941   6 C  py        

 Vector   59  Occ=0.000000D+00  E= 5.884426D-01
              MO Center=  3.2D-05, -5.1D-07,  9.5D-12, r^2= 5.6D+00
   Bfn.  Coefficient  Atom+Function         Bfn.  Coefficient  Atom+Function  
  ----- ------------  ---------------      ----- ------------  ---------------
     3      4.683320   1 C  s                45     -4.683450   4 C  s         
    35      2.011306   3 C  px               77      2.011283   6 C  px        
    21      1.972270   2 C  px               63      1.972293   5 C  px        
    22     -1.260000   2 C  py               64     -1.260020   5 C  py        
    36      1.196309   3 C  py               78      1.196289   6 C  py        

 Vector   60  Occ=0.000000D+00  E= 6.304308D-01
              MO Center=  1.0D-05, -1.5D-07,  3.2D-11, r^2= 5.3D+00
   Bfn.  Coefficient  Atom+Function         Bfn.  Coefficient  Atom+Function  
  ----- ------------  ---------------      ----- ------------  ---------------
    17      9.402719   2 C  s                31     -9.402527   3 C  s         
    59     -9.402761   5 C  s                73      9.402485   6 C  s         
     3     -7.492656   1 C  s                45      7.492739   4 C  s         
     7     -2.102291   1 C  px               49     -2.102307   4 C  px        
    21      2.083781   2 C  px               63      2.083774   5 C  px        

 Vector   61  Occ=0.000000D+00  E= 6.897160D-01
              MO Center=  1.8D-05, -2.6D-07, -2.6D-14, r^2= 6.0D+00
   Bfn.  Coefficient  Atom+Function         Bfn.  Coefficient  Atom+Function  
  ----- ------------  ---------------      ----- ------------  ---------------
     8      4.705836   1 C  py               50     -4.705891   4 C  py        
    35     -4.431949   3 C  px               77      4.431929   6 C  px        
    21     -4.352945   2 C  px               63      4.352964   5 C  px        
    22      2.547761   2 C  py               64     -2.547783   5 C  py        
    36     -2.407643   3 C  py               78      2.407622   6 C  py        

 Vector   62  Occ=0.000000D+00  E= 8.265007D-01
              MO Center= -2.8D-06,  2.5D-08, -7.1D-13, r^2= 4.9D+00
   Bfn.  Coefficient  Atom+Function         Bfn.  Coefficient  Atom+Function  
  ----- ------------  ---------------      ----- ------------  ---------------
     8      1.577452   1 C  py               50      1.577460   4 C  py        
    17      1.471768   2 C  s                31      1.471594   3 C  s         
    59     -1.471782   5 C  s                73     -1.471580   6 C  s         
    21     -1.385821   2 C  px               63     -1.385818   5 C  px        
    35      1.362030   3 C  px               77      1.362032   6 C  px        

 Vector   63  Occ=0.000000D+00  E= 8.362909D-01
              MO Center= -3.8D-07,  2.3D-08, -2.1D-12, r^2= 4.9D+00
   Bfn.  Coefficient  Atom+Function         Bfn.  Coefficient  Atom+Function  
  ----- ------------  ---------------      ----- ------------  ---------------
     7     -1.640194   1 C  px               49     -1.640181   4 C  px        
     3      1.618764   1 C  s                45     -1.618781   4 C  s         
    22     -1.382932   2 C  py               64     -1.382942   5 C  py        
    36      1.358937   3 C  py               78      1.358927   6 C  py        
    96      0.876344   9 H  s               111     -0.876346  12 H  s         

 Vector   64  Occ=0.000000D+00  E= 9.387237D-01
              MO Center= -5.1D-05,  8.0D-07,  5.4D-13, r^2= 4.4D+00
   Bfn.  Coefficient  Atom+Function         Bfn.  Coefficient  Atom+Function  
  ----- ------------  ---------------      ----- ------------  ---------------
    99      0.269789   9 H  pz              114      0.269803  12 H  pz        
    13      0.268346   1 C  d  1             55     -0.268333   4 C  d  1      
    89      0.220223   7 H  pz               94      0.220228   8 H  pz        
   104      0.220217  10 H  pz              109      0.220234  11 H  pz        
    39     -0.209266   3 C  d -1             81      0.209272   6 C  d -1      

 Vector   65  Occ=0.000000D+00  E= 1.004658D+00
              MO Center= -4.1D-05,  6.7D-07,  6.2D-13, r^2= 2.9D+00
   Bfn.  Coefficient  Atom+Function         Bfn.  Coefficient  Atom+Function  
  ----- ------------  ---------------      ----- ------------  ---------------
    11      0.356980   1 C  d -1             53      0.356964   4 C  d -1      
    25     -0.255299   2 C  d -1             67     -0.255289   5 C  d -1      
    39     -0.249510   3 C  d -1             81     -0.249520   6 C  d -1      
    41      0.186566   3 C  d  1             83      0.186568   6 C  d  1      
    27     -0.178520   2 C  d  1             69     -0.178517   5 C  d  1      

 Vector   66  Occ=0.000000D+00  E= 1.018991D+00
              MO Center=  3.3D-05, -5.7D-07, -9.7D-14, r^2= 4.5D+00
   Bfn.  Coefficient  Atom+Function         Bfn.  Coefficient  Atom+Function  
  ----- ------------  ---------------      ----- ------------  ---------------
    99      0.378927   9 H  pz              114     -0.378925  12 H  pz        
    13     -0.333437   1 C  d  1             55     -0.333441   4 C  d  1      
    89     -0.171260   7 H  pz               94      0.171217   8 H  pz        
   104      0.171273  10 H  pz              109     -0.171204  11 H  pz        
    25      0.162451   2 C  d -1             39     -0.163021   3 C  d -1      

 Vector   67  Occ=0.000000D+00  E= 1.031122D+00
              MO Center= -1.1D-05,  2.2D-07,  3.5D-13, r^2= 4.3D+00
   Bfn.  Coefficient  Atom+Function         Bfn.  Coefficient  Atom+Function  
  ----- ------------  ---------------      ----- ------------  ---------------
    89      0.287956   7 H  pz               94      0.287972   8 H  pz        
   104     -0.287950  10 H  pz              109     -0.287979  11 H  pz        
    27      0.281317   2 C  d  1             69      0.281316   5 C  d  1      
    41     -0.277475   3 C  d  1             83     -0.277476   6 C  d  1      
    39     -0.125079   3 C  d -1             81     -0.125084   6 C  d -1      

 Vector   68  Occ=0.000000D+00  E= 1.075869D+00
              MO Center=  4.8D-05, -7.3D-07, -6.9D-12, r^2= 4.1D+00
   Bfn.  Coefficient  Atom+Function         Bfn.  Coefficient  Atom+Function  
  ----- ------------  ---------------      ----- ------------  ---------------
    11      0.324338   1 C  d -1             53     -0.324351   4 C  d -1      
    89      0.285050   7 H  pz               94     -0.285128   8 H  pz        
   104      0.285062  10 H  pz              109     -0.285117  11 H  pz        
    25     -0.238420   2 C  d -1             39      0.237300   3 C  d -1      
    67      0.238434   5 C  d -1             81     -0.237287   6 C  d -1      

 Vector   69  Occ=0.000000D+00  E= 1.078426D+00
              MO Center=  1.4D-05, -2.7D-07, -1.1D-11, r^2= 4.2D+00
   Bfn.  Coefficient  Atom+Function         Bfn.  Coefficient  Atom+Function  
  ----- ------------  ---------------      ----- ------------  ---------------
    99      0.314783   9 H  pz              114      0.314775  12 H  pz        
    27     -0.283065   2 C  d  1             41      0.283672   3 C  d  1      
    69      0.283063   5 C  d  1             83     -0.283673   6 C  d  1      
    13      0.205022   1 C  d  1             55     -0.205029   4 C  d  1      
    89     -0.193954   7 H  pz               94     -0.193842   8 H  pz        

 Vector   70  Occ=0.000000D+00  E= 1.111297D+00
              MO Center= -3.2D-06,  6.8D-08,  9.8D-12, r^2= 6.1D+00
   Bfn.  Coefficient  Atom+Function         Bfn.  Coefficient  Atom+Function  
  ----- ------------  ---------------      ----- ------------  ---------------
     7      4.031127   1 C  px               49     -4.031094   4 C  px        
     3      2.852888   1 C  s                45      2.852812   4 C  s         
    36     -1.798436   3 C  py               78      1.798475   6 C  py        
    22     -1.763905   2 C  py               64      1.763866   5 C  py        
    17     -1.346736   2 C  s                31     -1.344280   3 C  s         

 Vector   71  Occ=0.000000D+00  E= 1.114238D+00
              MO Center=  4.2D-06, -8.3D-08,  7.1D-12, r^2= 6.2D+00
   Bfn.  Coefficient  Atom+Function         Bfn.  Coefficient  Atom+Function  
  ----- ------------  ---------------      ----- ------------  ---------------
    36      3.103295   3 C  py               78     -3.103290   6 C  py        
    22     -3.039178   2 C  py               64      3.039183   5 C  py        
    17     -2.800691   2 C  s                31      2.801799   3 C  s         
    59     -2.800689   5 C  s                73      2.801802   6 C  s         
    21     -2.013300   2 C  px               63      2.013303   5 C  px        

 Vector   72  Occ=0.000000D+00  E= 1.394405D+00
              MO Center=  6.8D-06, -1.1D-07,  6.6D-12, r^2= 7.4D+00
   Bfn.  Coefficient  Atom+Function         Bfn.  Coefficient  Atom+Function  
  ----- ------------  ---------------      ----- ------------  ---------------
    17    -14.032193   2 C  s                31     14.031958   3 C  s         
    59     14.032209   5 C  s                73    -14.031942   6 C  s         
     3     13.074924   1 C  s                45    -13.074958   4 C  s         
     7      7.183057   1 C  px               49      7.183081   4 C  px        
    36      6.519970   3 C  py               78      6.519957   6 C  py        

 Vector   73  Occ=0.000000D+00  E= 1.409508D+00
              MO Center= -3.3D-05,  5.3D-07, -4.2D-13, r^2= 4.3D+00
   Bfn.  Coefficient  Atom+Function         Bfn.  Coefficient  Atom+Function  
  ----- ------------  ---------------      ----- ------------  ---------------
     8      0.581515   1 C  py               50      0.581487   4 C  py        
    10      0.297514   1 C  d -2             52     -0.297506   4 C  d -2      
    98     -0.292644   9 H  py              113     -0.292655  12 H  py        
    28      0.224563   2 C  d  2             70     -0.224560   5 C  d  2      
     5     -0.223102   1 C  py               47     -0.223099   4 C  py        

 Vector   74  Occ=0.000000D+00  E= 1.445512D+00
              MO Center= -3.6D-05,  5.6D-07,  7.6D-13, r^2= 4.7D+00
   Bfn.  Coefficient  Atom+Function         Bfn.  Coefficient  Atom+Function  
  ----- ------------  ---------------      ----- ------------  ---------------
     7      0.370390   1 C  px               49     -0.370390   4 C  px        
    17     -0.264323   2 C  s                31     -0.264242   3 C  s         
    59     -0.264318   5 C  s                73     -0.264248   6 C  s         
    95      0.248531   9 H  s               110      0.248539  12 H  s         
    97      0.233905   9 H  px              112     -0.233914  12 H  px        

 Vector   75  Occ=0.000000D+00  E= 1.456989D+00
              MO Center= -2.0D-05,  3.1D-07, -9.8D-12, r^2= 6.1D+00
   Bfn.  Coefficient  Atom+Function         Bfn.  Coefficient  Atom+Function  
  ----- ------------  ---------------      ----- ------------  ---------------
    23     -0.774917   2 C  pz               37      0.774905   3 C  pz        
    65      0.774912   5 C  pz               79     -0.774910   6 C  pz        
     9      0.750095   1 C  pz               51     -0.750085   4 C  pz        
    89      0.407750   7 H  pz               94     -0.407739   8 H  pz        
   104     -0.407746  10 H  pz              109      0.407742  11 H  pz        

 Vector   76  Occ=0.000000D+00  E= 1.469263D+00
              MO Center= -2.0D-05,  3.0D-07,  1.6D-13, r^2= 3.0D+00
   Bfn.  Coefficient  Atom+Function         Bfn.  Coefficient  Atom+Function  
  ----- ------------  ---------------      ----- ------------  ---------------
     3      0.502491   1 C  s                45      0.502467   4 C  s         
    17     -0.473114   2 C  s                31     -0.472671   3 C  s         
    59     -0.473121   5 C  s                73     -0.472665   6 C  s         
     2      0.372772   1 C  s                44      0.372757   4 C  s         
    12      0.370249   1 C  d  0             54      0.370240   4 C  d  0      

 Vector   77  Occ=0.000000D+00  E= 1.518862D+00
              MO Center=  2.1D-05, -3.4D-07, -6.9D-13, r^2= 4.3D+00
   Bfn.  Coefficient  Atom+Function         Bfn.  Coefficient  Atom+Function  
  ----- ------------  ---------------      ----- ------------  ---------------
     9      0.459399   1 C  pz               51      0.459416   4 C  pz        
    99     -0.411957   9 H  pz              114     -0.411950  12 H  pz        
    41      0.304805   3 C  d  1             83     -0.304809   6 C  d  1      
    27     -0.297232   2 C  d  1             69      0.297228   5 C  d  1      
    25     -0.244156   2 C  d -1             67      0.244157   5 C  d -1      

 Vector   78  Occ=0.000000D+00  E= 1.523671D+00
              MO Center=  7.1D-06, -2.0D-07,  1.0D-11, r^2= 5.3D+00
   Bfn.  Coefficient  Atom+Function         Bfn.  Coefficient  Atom+Function  
  ----- ------------  ---------------      ----- ------------  ---------------
    17      1.401687   2 C  s                31     -1.401810   3 C  s         
    59      1.401690   5 C  s                73     -1.401807   6 C  s         
     8      1.068207   1 C  py               50     -1.068208   4 C  py        
    98      0.483650   9 H  py              113     -0.483651  12 H  py        
    21      0.350524   2 C  px               63     -0.350538   5 C  px        

 Vector   79  Occ=0.000000D+00  E= 1.532516D+00
              MO Center= -9.8D-07,  2.9D-08, -1.0D-11, r^2= 4.6D+00
   Bfn.  Coefficient  Atom+Function         Bfn.  Coefficient  Atom+Function  
  ----- ------------  ---------------      ----- ------------  ---------------
    11      0.446313   1 C  d -1             53     -0.446311   4 C  d -1      
    23      0.419345   2 C  pz               37     -0.419274   3 C  pz        
    65      0.419345   5 C  pz               79     -0.419275   6 C  pz        
    89     -0.371367   7 H  pz               94      0.371308   8 H  pz        
   104     -0.371365  10 H  pz              109      0.371310  11 H  pz        

 Vector   80  Occ=0.000000D+00  E= 1.534938D+00
              MO Center=  1.1D-05, -1.5D-07,  1.2D-13, r^2= 4.7D+00
   Bfn.  Coefficient  Atom+Function         Bfn.  Coefficient  Atom+Function  
  ----- ------------  ---------------      ----- ------------  ---------------
    17      0.434299   2 C  s                31      0.432272   3 C  s         
    59     -0.434207   5 C  s                73     -0.432363   6 C  s         
     8      0.358560   1 C  py               50      0.358502   4 C  py        
    93      0.271819   8 H  py              108      0.271824  11 H  py        
    88      0.268847   7 H  py              103      0.268842  10 H  py        

 Vector   81  Occ=0.000000D+00  E= 1.535985D+00
              MO Center=  2.4D-05, -4.8D-07, -4.1D-13, r^2= 4.6D+00
   Bfn.  Coefficient  Atom+Function         Bfn.  Coefficient  Atom+Function  
  ----- ------------  ---------------      ----- ------------  ---------------
    17      0.787776   2 C  s                31     -0.788657   3 C  s         
    59     -0.787775   5 C  s                73      0.788657   6 C  s         
    21      0.471907   2 C  px               35      0.474002   3 C  px        
    63      0.471923   5 C  px               77      0.473986   6 C  px        
    97      0.351503   9 H  px              112      0.351502  12 H  px        

 Vector   82  Occ=0.000000D+00  E= 1.547450D+00
              MO Center= -5.1D-06,  3.8D-07, -6.3D-13, r^2= 5.2D+00
   Bfn.  Coefficient  Atom+Function         Bfn.  Coefficient  Atom+Function  
  ----- ------------  ---------------      ----- ------------  ---------------
     3      1.180939   1 C  s                45      1.180865   4 C  s         
    35     -0.671458   3 C  px               77      0.671496   6 C  px        
    21      0.663065   2 C  px               63     -0.663028   5 C  px        
    17     -0.499428   2 C  s                31     -0.499196   3 C  s         
    59     -0.499444   5 C  s                73     -0.499180   6 C  s         

 Vector   83  Occ=0.000000D+00  E= 1.600327D+00
              MO Center=  2.6D-05, -3.3D-07,  1.4D-12, r^2= 5.3D+00
   Bfn.  Coefficient  Atom+Function         Bfn.  Coefficient  Atom+Function  
  ----- ------------  ---------------      ----- ------------  ---------------
     3      2.073574   1 C  s                45     -2.073603   4 C  s         
    35      1.568403   3 C  px               77      1.568389   6 C  px        
    21      1.522610   2 C  px               63      1.522624   5 C  px        
    22     -1.462278   2 C  py               64     -1.462289   5 C  py        
    36      1.412979   3 C  py               78      1.412968   6 C  py        

 Vector   84  Occ=0.000000D+00  E= 1.614227D+00
              MO Center=  2.7D-06, -2.3D-07, -1.3D-12, r^2= 5.7D+00
   Bfn.  Coefficient  Atom+Function         Bfn.  Coefficient  Atom+Function  
  ----- ------------  ---------------      ----- ------------  ---------------
     8      2.492317   1 C  py               50      2.492299   4 C  py        
    17      1.865761   2 C  s                31      1.865854   3 C  s         
    59     -1.865786   5 C  s                73     -1.865829   6 C  s         
    35      1.419586   3 C  px               77      1.419622   6 C  px        
    21     -1.411463   2 C  px               63     -1.411428   5 C  px        

 Vector   85  Occ=0.000000D+00  E= 1.720411D+00
              MO Center= -8.5D-05,  1.3D-06, -4.9D-13, r^2= 5.1D+00
   Bfn.  Coefficient  Atom+Function         Bfn.  Coefficient  Atom+Function  
  ----- ------------  ---------------      ----- ------------  ---------------
    89      0.381903   7 H  pz               94      0.381883   8 H  pz        
   104      0.381887  10 H  pz              109      0.381898  11 H  pz        
    99      0.372342   9 H  pz              114      0.372375  12 H  pz        
    13     -0.326054   1 C  d  1             55      0.326027   4 C  d  1      
    39      0.258120   3 C  d -1             81     -0.258135   6 C  d -1      

 Vector   86  Occ=0.000000D+00  E= 1.754373D+00
              MO Center= -9.9D-05, -6.5D-06,  5.0D-13, r^2= 5.4D+00
   Bfn.  Coefficient  Atom+Function         Bfn.  Coefficient  Atom+Function  
  ----- ------------  ---------------      ----- ------------  ---------------
     8      0.530009   1 C  py               50      0.529960   4 C  py        
    98     -0.495488   9 H  py              113     -0.495526  12 H  py        
    17      0.364987   2 C  s                31      0.364929   3 C  s         
    59     -0.364833   5 C  s                73     -0.365104   6 C  s         
    92      0.315274   8 H  px              107      0.315273  11 H  px        

 Vector   87  Occ=0.000000D+00  E= 1.754557D+00
              MO Center= -7.2D-06,  8.2D-06, -5.3D-13, r^2= 5.3D+00
   Bfn.  Coefficient  Atom+Function         Bfn.  Coefficient  Atom+Function  
  ----- ------------  ---------------      ----- ------------  ---------------
     3      1.818531   1 C  s                45      1.818540   4 C  s         
    17     -0.925983   2 C  s                31     -0.926576   3 C  s         
    59     -0.925986   5 C  s                73     -0.926564   6 C  s         
    22     -0.455246   2 C  py               64      0.455252   5 C  py        
    36     -0.446184   3 C  py               78      0.446176   6 C  py        

 Vector   88  Occ=0.000000D+00  E= 1.757994D+00
              MO Center=  8.3D-05, -1.3D-06,  7.2D-13, r^2= 4.8D+00
   Bfn.  Coefficient  Atom+Function         Bfn.  Coefficient  Atom+Function  
  ----- ------------  ---------------      ----- ------------  ---------------
    99      0.526546   9 H  pz              114     -0.526523  12 H  pz        
    13      0.451935   1 C  d  1             55      0.451953   4 C  d  1      
    25     -0.246479   2 C  d -1             39      0.245722   3 C  d -1      
    67     -0.246497   5 C  d -1             81      0.245704   6 C  d -1      
    89     -0.246697   7 H  pz               94      0.246718   8 H  pz        

 Vector   89  Occ=0.000000D+00  E= 1.763338D+00
              MO Center= -1.1D-07,  6.0D-08, -4.5D-13, r^2= 4.9D+00
   Bfn.  Coefficient  Atom+Function         Bfn.  Coefficient  Atom+Function  
  ----- ------------  ---------------      ----- ------------  ---------------
    89      0.446040   7 H  pz               94      0.446045   8 H  pz        
   104     -0.446040  10 H  pz              109     -0.446045  11 H  pz        
    27     -0.275435   2 C  d  1             69     -0.275431   5 C  d  1      
    41      0.267106   3 C  d  1             83      0.267110   6 C  d  1      
    39      0.265519   3 C  d -1             81      0.265520   6 C  d -1      

 Vector   90  Occ=0.000000D+00  E= 1.767223D+00
              MO Center=  9.8D-05, -1.5D-06,  2.3D-13, r^2= 5.3D+00
   Bfn.  Coefficient  Atom+Function         Bfn.  Coefficient  Atom+Function  
  ----- ------------  ---------------      ----- ------------  ---------------
    17      1.676234   2 C  s                31     -1.675921   3 C  s         
    59      1.676267   5 C  s                73     -1.675888   6 C  s         
    21      0.537769   2 C  px               35      0.536666   3 C  px        
    63     -0.537760   5 C  px               77     -0.536675   6 C  px        
     8      0.423113   1 C  py               50     -0.423161   4 C  py        

 Vector   91  Occ=0.000000D+00  E= 1.896253D+00
              MO Center=  5.7D-06, -1.8D-07,  4.1D-13, r^2= 4.5D+00
[...]
    17      0.587222   2 C  s                31     -0.586976   3 C  s         
    59      0.587227   5 C  s                73     -0.586970   6 C  s         
    10      0.527057   1 C  d -2             52      0.527057   4 C  d -2      
    21      0.451719   2 C  px               63     -0.451717   5 C  px        
    35      0.438252   3 C  px               77     -0.438254   6 C  px        

 Vector   98  Occ=0.000000D+00  E= 2.077306D+00
              MO Center= -3.4D-04,  5.4D-06,  5.4D-14, r^2= 2.9D+00
   Bfn.  Coefficient  Atom+Function         Bfn.  Coefficient  Atom+Function  
  ----- ------------  ---------------      ----- ------------  ---------------
    41      0.534104   3 C  d  1             83      0.534081   6 C  d  1      
    27      0.526876   2 C  d  1             69      0.526905   5 C  d  1      
    13      0.297915   1 C  d  1             55      0.297516   4 C  d  1      
    25      0.235830   2 C  d -1             67      0.235620   5 C  d -1      
    39     -0.218602   3 C  d -1             81     -0.218813   6 C  d -1      

 Vector   99  Occ=0.000000D+00  E= 2.079993D+00
              MO Center=  3.3D-04, -5.3D-06, -1.3D-11, r^2= 3.6D+00
   Bfn.  Coefficient  Atom+Function         Bfn.  Coefficient  Atom+Function  
  ----- ------------  ---------------      ----- ------------  ---------------
    13      0.620835   1 C  d  1             55     -0.621023   4 C  d  1      
    99     -0.382928   9 H  pz              114     -0.382850  12 H  pz        
    25      0.326187   2 C  d -1             39      0.327636   3 C  d -1      
    67     -0.326333   5 C  d -1             81     -0.327501   6 C  d -1      
    89      0.186057   7 H  pz               94      0.186134   8 H  pz        

 Vector  100  Occ=0.000000D+00  E= 2.143440D+00
              MO Center=  9.7D-06, -1.4D-07, -8.8D-13, r^2= 3.6D+00
   Bfn.  Coefficient  Atom+Function         Bfn.  Coefficient  Atom+Function  
  ----- ------------  ---------------      ----- ------------  ---------------
    39     -0.446511   3 C  d -1             81      0.446505   6 C  d -1      
    25      0.436114   2 C  d -1             67     -0.436120   5 C  d -1      
    27     -0.335508   2 C  d  1             69      0.335507   5 C  d  1      
    41     -0.321426   3 C  d  1             83      0.321427   6 C  d  1      
    89      0.318149   7 H  pz               94     -0.318107   8 H  pz        

 Vector  101  Occ=0.000000D+00  E= 2.305334D+00
              MO Center=  1.2D-05, -2.1D-07, -4.0D-13, r^2= 3.6D+00
   Bfn.  Coefficient  Atom+Function         Bfn.  Coefficient  Atom+Function  
  ----- ------------  ---------------      ----- ------------  ---------------
    13      0.424411   1 C  d  1             55      0.424419   4 C  d  1      
    39     -0.395605   3 C  d -1             81     -0.395601   6 C  d -1      
    25      0.385389   2 C  d -1             67      0.385393   5 C  d -1      
    27     -0.327056   2 C  d  1             69     -0.327057   5 C  d  1      
    41     -0.314606   3 C  d  1             83     -0.314605   6 C  d  1      

 Vector  102  Occ=0.000000D+00  E= 2.343085D+00
              MO Center= -7.7D-06,  1.2D-07,  3.3D-13, r^2= 3.6D+00
   Bfn.  Coefficient  Atom+Function         Bfn.  Coefficient  Atom+Function  
  ----- ------------  ---------------      ----- ------------  ---------------
     3      2.922730   1 C  s                45      2.922685   4 C  s         
    17     -1.451197   2 C  s                31     -1.451669   3 C  s         
    59     -1.451137   5 C  s                73     -1.451728   6 C  s         
     7      0.969512   1 C  px               49     -0.969494   4 C  px        
    22     -0.717105   2 C  py               64      0.717089   5 C  py        

 Vector  103  Occ=0.000000D+00  E= 2.366588D+00
              MO Center=  4.0D-06, -6.7D-08, -5.0D-13, r^2= 3.6D+00
   Bfn.  Coefficient  Atom+Function         Bfn.  Coefficient  Atom+Function  
  ----- ------------  ---------------      ----- ------------  ---------------
    17      2.659168   2 C  s                31     -2.658856   3 C  s         
    59      2.659175   5 C  s                73     -2.658850   6 C  s         
    21      0.762752   2 C  px               63     -0.762751   5 C  px        
    35      0.744575   3 C  px               77     -0.744576   6 C  px        
     8      0.629205   1 C  py               50     -0.629210   4 C  py        

 Vector  104  Occ=0.000000D+00  E= 2.370924D+00
              MO Center=  1.0D-05, -1.4D-07, -1.4D-13, r^2= 2.9D+00
   Bfn.  Coefficient  Atom+Function         Bfn.  Coefficient  Atom+Function  
  ----- ------------  ---------------      ----- ------------  ---------------
    11      0.503368   1 C  d -1             41      0.504092   3 C  d  1      
    53     -0.503375   4 C  d -1             83     -0.504090   6 C  d  1      
    27      0.496346   2 C  d  1             69     -0.496348   5 C  d  1      
    25      0.250914   2 C  d -1             67     -0.250918   5 C  d -1      
    39     -0.234950   3 C  d -1             81      0.234947   6 C  d -1      

 Vector  105  Occ=0.000000D+00  E= 2.511087D+00
              MO Center= -4.2D-04,  6.7D-06,  2.1D-13, r^2= 5.4D+00
   Bfn.  Coefficient  Atom+Function         Bfn.  Coefficient  Atom+Function  
  ----- ------------  ---------------      ----- ------------  ---------------
    97      0.885236   9 H  px              112      0.885409  12 H  px        
    95     -0.750649   9 H  s               110      0.750793  12 H  s         
     4      0.574710   1 C  px               46      0.574610   4 C  px        
    14     -0.533007   1 C  d  2             56      0.532900   4 C  d  2      
     2     -0.506329   1 C  s                44      0.506219   4 C  s         

 Vector  106  Occ=0.000000D+00  E= 2.518167D+00
              MO Center=  4.2D-04, -7.4D-06,  5.8D-14, r^2= 5.6D+00
   Bfn.  Coefficient  Atom+Function         Bfn.  Coefficient  Atom+Function  
  ----- ------------  ---------------      ----- ------------  ---------------
    97      0.592118   9 H  px              112     -0.591863  12 H  px        
    93     -0.539402   8 H  py              108      0.539304  11 H  py        
    88     -0.529025   7 H  py              103      0.529121  10 H  py        
    85     -0.509707   7 H  s                90     -0.509795   8 H  s         
   100     -0.509802  10 H  s               105     -0.509700  11 H  s         

 Vector  107  Occ=0.000000D+00  E= 2.523195D+00
              MO Center= -2.6D-06,  7.1D-07,  3.7D-13, r^2= 5.6D+00
   Bfn.  Coefficient  Atom+Function         Bfn.  Coefficient  Atom+Function  
  ----- ------------  ---------------      ----- ------------  ---------------
    85      0.637846   7 H  s                90      0.637846   8 H  s         
   100     -0.637844  10 H  s               105     -0.637849  11 H  s         
    93      0.628967   8 H  py              108      0.628968  11 H  py        
    88      0.615736   7 H  py              103      0.615735  10 H  py        
    16     -0.482497   2 C  s                30     -0.482489   3 C  s         

 Vector  108  Occ=0.000000D+00  E= 2.579785D+00
              MO Center= -6.0D-06,  1.1D-07,  5.2D-15, r^2= 3.3D+00
   Bfn.  Coefficient  Atom+Function         Bfn.  Coefficient  Atom+Function  
  ----- ------------  ---------------      ----- ------------  ---------------
    10      0.806705   1 C  d -2             52     -0.806703   4 C  d -2      
    28     -0.378536   2 C  d  2             70      0.378530   5 C  d  2      
    42     -0.366134   3 C  d  2             84      0.366141   6 C  d  2      
    98      0.304117   9 H  py              113      0.304120  12 H  py        
     5      0.282530   1 C  py               47      0.282530   4 C  py        

 Vector  109  Occ=0.000000D+00  E= 2.617676D+00
              MO Center=  4.1D-06, -6.1D-08,  1.3D-13, r^2= 3.6D+00
   Bfn.  Coefficient  Atom+Function         Bfn.  Coefficient  Atom+Function  
  ----- ------------  ---------------      ----- ------------  ---------------
    17     -2.885528   2 C  s                31      2.885511   3 C  s         
    59      2.885541   5 C  s                73     -2.885498   6 C  s         
     3      2.655038   1 C  s                45     -2.655060   4 C  s         
     7      1.039277   1 C  px               49      1.039290   4 C  px        
    36      0.840233   3 C  py               78      0.840227   6 C  py        

 Vector  110  Occ=0.000000D+00  E= 2.655360D+00
              MO Center=  6.9D-06, -1.4D-07, -5.9D-13, r^2= 3.7D+00
   Bfn.  Coefficient  Atom+Function         Bfn.  Coefficient  Atom+Function  
  ----- ------------  ---------------      ----- ------------  ---------------
    17     -4.011544   2 C  s                31      4.011490   3 C  s         
    59      4.011554   5 C  s                73     -4.011480   6 C  s         
     3      3.792756   1 C  s                45     -3.792776   4 C  s         
     7      1.375770   1 C  px               49      1.375775   4 C  px        
    36      1.269628   3 C  py               78      1.269624   6 C  py        

 Vector  111  Occ=0.000000D+00  E= 2.837770D+00
              MO Center=  5.8D-08, -3.5D-08, -1.7D-13, r^2= 4.1D+00
   Bfn.  Coefficient  Atom+Function         Bfn.  Coefficient  Atom+Function  
  ----- ------------  ---------------      ----- ------------  ---------------
    14     -0.771948   1 C  d  2             56     -0.771947   4 C  d  2      
    95      0.742237   9 H  s               110      0.742238  12 H  s         
     7      0.721807   1 C  px               49     -0.721802   4 C  px        
    97     -0.699148   9 H  px              112      0.699147  12 H  px        
     4      0.429817   1 C  px               46     -0.429816   4 C  px        

 Vector  112  Occ=0.000000D+00  E= 2.913514D+00
              MO Center=  5.6D-06, -7.6D-08, -1.5D-13, r^2= 4.0D+00
   Bfn.  Coefficient  Atom+Function         Bfn.  Coefficient  Atom+Function  
  ----- ------------  ---------------      ----- ------------  ---------------
    85      0.635441   7 H  s                90     -0.635343   8 H  s         
   100      0.635443  10 H  s               105     -0.635341  11 H  s         
    36     -0.618758   3 C  py               78      0.618756   6 C  py        
    22      0.615519   2 C  py               64     -0.615520   5 C  py        
    24     -0.560059   2 C  d -2             66     -0.560060   5 C  d -2      

 Vector  113  Occ=0.000000D+00  E= 2.983914D+00
              MO Center=  7.0D-06, -9.2D-08,  9.1D-14, r^2= 3.7D+00
   Bfn.  Coefficient  Atom+Function         Bfn.  Coefficient  Atom+Function  
  ----- ------------  ---------------      ----- ------------  ---------------
     8      1.067976   1 C  py               50     -1.067977   4 C  py        
    35     -1.015114   3 C  px               77      1.015114   6 C  px        
    21     -1.000797   2 C  px               63      1.000797   5 C  px        
    10     -0.581709   1 C  d -2             52     -0.581715   4 C  d -2      
    28      0.552557   2 C  d  2             70      0.552560   5 C  d  2      

 Vector  114  Occ=0.000000D+00  E= 3.367395D+00
              MO Center=  5.7D-06, -8.1D-08,  6.8D-14, r^2= 3.4D+00
   Bfn.  Coefficient  Atom+Function         Bfn.  Coefficient  Atom+Function  
  ----- ------------  ---------------      ----- ------------  ---------------
    17     -1.216533   2 C  s                31      1.216515   3 C  s         
    59      1.216535   5 C  s                73     -1.216513   6 C  s         
     3      1.128419   1 C  s                45     -1.128423   4 C  s         
     7      0.951300   1 C  px               49      0.951304   4 C  px        
    36      0.858205   3 C  py               78      0.858203   6 C  py        


   alpha - beta orbital overlaps 
   ----------------------------- 


   alpha      1      2      3      4      5      6      7      8      9     10
    beta      1      2      3      4      5      6      7      9      8     10
 overlap   1.000  1.000  1.000  1.000  1.000  1.000  0.999  0.999  1.000  0.999


   alpha     11     12     13     14     15     16     17     18     19     20
    beta     11     12     13     14     15     16     18     17     19     21
 overlap   1.000  1.000  0.999  0.999  1.000  0.999  0.991  1.000  1.000  0.996


   alpha     21     22     23     24     25     26     27     28     29     30
    beta     20     22     23     24     25     26     27     28     29     30
 overlap   1.000  0.990  1.000  0.999  0.996  1.000  1.000  0.997  1.000  0.998


   alpha     31     32     33     34     35     36     37     38     39     40
    beta     31     32     33     34     35     36     38     37     39     40
 overlap   0.997  1.000  1.000  0.997  0.999  0.994  0.869  0.994  0.867  0.996


   alpha     41     42     43     44     45     46     47     48     49     50
    beta     41     43     42     44     46     45     47     48     49     50
 overlap   0.990  0.995  0.996  0.996  0.993  1.000  0.990  1.000  0.999  1.000


   alpha     51     52     53     54     55     56     57     58     59     60
    beta     51     52     53     54     55     56     57     58     59     60
 overlap   0.999  0.994  1.000  0.999  1.000  1.000  1.000  1.000  0.997  0.996


   alpha     61     62     63     64     65     66     67     68     69     70
    beta     61     62     63     64     65     67     66     69     68     70
 overlap   1.000  1.000  1.000  0.999  0.963  1.000  0.963  1.000  0.999  1.000


   alpha     71     72     73     74     75     76     77     78     79     80
    beta     71     72     73     74     75     76     77     78     80     79
 overlap   1.000  1.000  1.000  0.971  1.000  0.970  1.000  1.000  0.999  1.000


   alpha     81     82     83     84     85     86     87     88     89     90
    beta     81     82     83     84     85     86     87     90     88     89
 overlap   0.992  1.000  0.991  1.000  1.000  1.000  0.999  1.000  1.000  1.000


   alpha     91     92     93     94     95     96     97     98     99    100
    beta     93     91     92     94     95     99     96     98     97    100
 overlap   0.918  1.000  0.920  1.000  0.999  0.999  1.000  0.999  1.000  1.000


   alpha    101    102    103    104    105    106    107    108    109    110
    beta    101    102    104    103    105    106    107    108    109    110
 overlap   1.000  0.999  1.000  1.000  1.000  1.000  1.000  1.000  0.994  0.995


   alpha    111    112    113    114
    beta    111    112    113    114
 overlap   1.000  1.000  1.000  1.000

     --------------------------
     Expectation value of S2:  
     --------------------------
      <S2> =      0.7698 (Exact =     0.7500)


 center of mass
 --------------
 x =   0.00000001 y =  -0.00000000 z =   0.00000000

 moments of inertia (a.u.)
 ------------------
         343.222847865957          -0.405283120234           0.000000000000
          -0.405283120234         318.008988143025           0.000000000000
           0.000000000000           0.000000000000         661.231836008982

     Multipole analysis of the density
     ---------------------------------

     L   x y z        total         alpha         beta         nuclear
     -   - - -        -----         -----         ----         -------
     0   0 0 0      1.000000    -21.000000    -20.000000     42.000000

     1   1 0 0      0.000067      0.000029      0.000038      0.000000
     1   0 1 0     -0.000001     -0.000000     -0.000001      0.000000
     1   0 0 1     -0.000000     -0.000000      0.000000      0.000000

     2   2 0 0    -13.576346   -106.651949    -99.474143    192.549745
     2   1 1 0     -0.031634     -0.071409     -0.174889      0.214664
     2   1 0 1      0.000000     -0.000000      0.000000      0.000000
     2   0 2 0    -15.548841   -111.092151   -110.361988    205.905297
     2   0 1 1      0.000000      0.000000      0.000000      0.000000
     2   0 0 2    -26.594294    -14.364432    -12.229862      0.000000


 Task  times  cpu:       20.1s     wall:       20.2s


                                NWChem Input Module
                                -------------------


 Summary of allocated global arrays
-----------------------------------
  array 0 => double precision sf 1(114,114),  handle: -981 
  array 1 => double precision sf 1(114,114),  handle: -980 



                         GA Statistics for process    0
                         ------------------------------

       create   destroy   get      put      acc     scatter   gather  read&inc
calls:  270      268     1.05e+05 2520     2.93e+04    0        0      264     
number of processes/call 1.10e+00 1.70e+00 1.21e+00 0.00e+00 0.00e+00
bytes total:             7.95e+07 6.73e+06 6.52e+07 0.00e+00 0.00e+00 2.11e+03
bytes remote:            7.07e+07 4.70e+06 6.02e+07 0.00e+00 0.00e+00 0.00e+00
Max memory consumed for GA by this process: 511872 bytes

MA_summarize_allocated_blocks: starting scan ...
heap block 'gridpts', handle 84, address 0x12a01818:
	type of elements:		double precision
	number of elements:		65453109
	address of client space:	0x12a01880
	index for client space:		11420887
	total number of bytes:		523624984
MA_summarize_allocated_blocks: scan completed: 1 heap block, 0 stack blocks
MA usage statistics:

	allocation statistics:
					      heap	     stack
					      ----	     -----
	current number of blocks	         1	         0
	maximum number of blocks	        22	        53
	current total bytes		 523624984	         0
	maximum total bytes		 527405576	  22728072
	maximum total K-bytes		    527406	     22729
	maximum total M-bytes		       528	        23


                                     CITATION
                                     --------
                Please cite the following reference when publishing
                           results obtained with NWChem:

                 M. Valiev, E.J. Bylaska, N. Govind, K. Kowalski,
              T.P. Straatsma, H.J.J. van Dam, D. Wang, J. Nieplocha,
                        E. Apra, T.L. Windus, W.A. de Jong
                 "NWChem: a comprehensive and scalable open-source
                  solution for large scale molecular simulations"
                      Comput. Phys. Commun. 181, 1477 (2010)
                           doi:10.1016/j.cpc.2010.04.018

                                      AUTHORS
                                      -------
          E. Apra, E. J. Bylaska, W. A. de Jong, N. Govind, K. Kowalski,
       T. P. Straatsma, M. Valiev, H. J. J. van Dam, D. Wang, T. L. Windus,
        J. Hammond, J. Autschbach, K. Bhaskaran-Nair, J. Brabec, K. Lopata,
    S. A. Fischer, S. Krishnamoorthy, M. Jacquelin, W. Ma, M. Klemm, O. Villa,
      Y. Chen, V. Anisimov, F. Aquino, S. Hirata, M. T. Hackler, V. Konjkov,
            D. Mejia-Rodriguez, T. Risthaus, M. Malagoli, A. Marenich,
   A. Otero-de-la-Roza, J. Mullin, P. Nichols, R. Peverati, J. Pittner, Y. Zhao,
        P.-D. Fan, A. Fonari, M. J. Williamson, R. J. Harrison, J. R. Rehr,
      M. Dupuis, D. Silverstein, D. M. A. Smith, J. Nieplocha, V. Tipparaju,
    M. Krishnan, B. E. Van Kuiken, A. Vazquez-Mayagoitia, L. Jensen, M. Swart,
      Q. Wu, T. Van Voorhis, A. A. Auer, M. Nooijen, L. D. Crosby, E. Brown,
      G. Cisneros, G. I. Fann, H. Fruchtl, J. Garza, K. Hirao, R. A. Kendall,
      J. A. Nichols, K. Tsemekhman, K. Wolinski, J. Anchell, D. E. Bernholdt,
      P. Borowski, T. Clark, D. Clerc, H. Dachsel, M. J. O. Deegan, K. Dyall,
    D. Elwood, E. Glendening, M. Gutowski, A. C. Hess, J. Jaffe, B. G. Johnson,
     J. Ju, R. Kobayashi, R. Kutteh, Z. Lin, R. Littlefield, X. Long, B. Meng,
      T. Nakajima, S. Niu, L. Pollack, M. Rosing, K. Glaesemann, G. Sandrone,
      M. Stave, H. Taylor, G. Thomas, J. H. van Lenthe, A. T. Wong, Z. Zhang.

 Total times  cpu:       20.1s     wall:       21.3s
